
*************** JDFTx 1.7.0  ***************

Start date and time: Thu Nov  9 00:53:22 2023
Executable jdftx with command-line: -m -i X.in -o X.out
Running on hosts (process indices):  ac0376 (0-20)
Divided in process groups (process indices):  0 (0)  1 (1)  2 (2)  3 (3)  4 (4)  5 (5)  6 (6)  7 (7)  8 (8)  9 (9)  10 (10)  11 (11)  12 (12)  13 (13)  14 (14)  15 (15)  16 (16)  17 (17)  18 (18)  19 (19)  20 (20)
Resource initialization completed at t[s]:      0.01
Run totals: 21 processes, 21 threads, 0 GPUs


Input parsed successfully to the following command list (including defaults):

basis kpoint-dependent
cache-projectors no
coords-type Lattice
core-overlap-check vector
coulomb-interaction Slab 001
coulomb-truncation-embed 0 0 0.5
davidson-band-ratio 1.1
density-of-states Etol 1.000000e-06 Esigma 0.000000e+00 \
		Complete \
	Total \
		Occupied \
	Total
dump End State IonicPositions Lattice ElecDensity CoreDensity EigStats DOS
dump Electronic State Forces
dump Ionic State IonicPositions Forces Lattice DOS
dump-interval Electronic 8
dump-interval Ionic 4
dump-name X.$var
elec-cutoff 10
elec-eigen-algo Davidson
elec-ex-corr gga-PBE
elec-smearing Fermi 0.0095
electronic-minimize  \
	dirUpdateScheme      FletcherReeves \
	linminMethod         DirUpdateRecommended \
	nIterations          2000 \
	history              15 \
	knormThreshold       0 \
	energyDiffThreshold  1e-06 \
	nEnergyDiff          2 \
	alphaTstart          1 \
	alphaTmin            1e-10 \
	updateTestStepSize   yes \
	alphaTreduceFactor   0.1 \
	alphaTincreaseFactor 3 \
	nAlphaAdjustMax      3 \
	wolfeEnergy          0.0001 \
	wolfeGradient        0.9 \
	fdTest               no
exchange-regularization WignerSeitzTruncated
fluid None
fluid-ex-corr (null) lda-PZ
fluid-gummel-loop 10 1.000000e-05
fluid-minimize  \
	dirUpdateScheme      PolakRibiere \
	linminMethod         DirUpdateRecommended \
	nIterations          100 \
	history              15 \
	knormThreshold       0 \
	energyDiffThreshold  0 \
	nEnergyDiff          2 \
	alphaTstart          1 \
	alphaTmin            1e-10 \
	updateTestStepSize   yes \
	alphaTreduceFactor   0.1 \
	alphaTincreaseFactor 3 \
	nAlphaAdjustMax      3 \
	wolfeEnergy          0.0001 \
	wolfeGradient        0.9 \
	fdTest               no
fluid-solvent H2O 55.338 ScalarEOS \
	epsBulk 78.4 \
	pMol 0.92466 \
	epsInf 1.77 \
	Pvap 1.06736e-10 \
	sigmaBulk 4.62e-05 \
	Rvdw 2.61727 \
	Res 1.42 \
	tauNuc 343133 \
	poleEl 15 7 1
forces-output-coords Positions
initial-state X.$var
ion Na   0.000000000000000   0.000000000000000   0.216220000000000 1
ion Na   0.500000000000000   0.500000000000000   0.254060000000000 1
ion Na   0.000000000000000   0.000000000000000   0.291890000000000 1
ion Na   0.500000000000000   0.500000000000000   0.329730000000000 1
ion Na   0.000000000000000   0.000000000000000   0.367570000000000 1
ion Na   0.500000000000000   0.500000000000000   0.405410000000000 1
ion Na   0.000000000000000   0.000000000000000   0.443240000000000 1
ion Na   0.500000000000000   0.500000000000000   0.481080000000000 1
ion Na   0.000000000000000   0.000000000000000   0.518920000000000 1
ion Na   0.500000000000000   0.500000000000000   0.556760000000000 1
ion Na   0.000000000000000   0.000000000000000   0.594590000000000 1
ion Na   0.500000000000000   0.500000000000000   0.632430000000000 1
ion Na   0.000000000000000   0.000000000000000   0.670270000000000 1
ion Na   0.500000000000000   0.500000000000000   0.708110000000000 1
ion Na   0.000000000000000   0.000000000000000   0.745940000000000 1
ion Na   0.500000000000000   0.500000000000000   0.783780000000000 1
ion-species SG15/$ID_ONCV_PBE.upf
ion-width 0
ionic-minimize  \
	dirUpdateScheme      L-BFGS \
	linminMethod         DirUpdateRecommended \
	nIterations          0 \
	history              15 \
	knormThreshold       0.0001 \
	energyDiffThreshold  1e-06 \
	nEnergyDiff          2 \
	alphaTstart          1 \
	alphaTmin            1e-10 \
	updateTestStepSize   yes \
	alphaTreduceFactor   0.1 \
	alphaTincreaseFactor 3 \
	nAlphaAdjustMax      3 \
	wolfeEnergy          0.0001 \
	wolfeGradient        0.9 \
	fdTest               no
kpoint   0.000000000000   0.000000000000   0.000000000000  1.00000000000000
kpoint-folding 11 11 1 
latt-move-scale 1 1 1
latt-scale 1.88973 1.88973 1.88973 
lattice  \
	   4.199920000000001   -0.000000000000000   -0.000000000000000  \
	   0.000000000000000    4.199920000000001   -0.000000000000000  \
	   0.000000000000000    0.000000000000000   55.499399999999994 
lattice-minimize  \
	dirUpdateScheme      L-BFGS \
	linminMethod         DirUpdateRecommended \
	nIterations          0 \
	history              15 \
	knormThreshold       0 \
	energyDiffThreshold  1e-06 \
	nEnergyDiff          2 \
	alphaTstart          1 \
	alphaTmin            1e-10 \
	updateTestStepSize   yes \
	alphaTreduceFactor   0.1 \
	alphaTincreaseFactor 3 \
	nAlphaAdjustMax      3 \
	wolfeEnergy          0.0001 \
	wolfeGradient        0.9 \
	fdTest               no
lcao-params -1 1e-06 0.0095
pcm-variant GLSSA13
spintype no-spin
subspace-rotation-factor 1 yes
symmetries automatic
symmetry-threshold 0.0001



---------- Setting up symmetries ----------

Found 16 point-group symmetries of the bravais lattice
Found 16 space-group symmetries with basis
Applied RMS atom displacement 0 bohrs to make symmetries exact.

---------- Initializing the Grid ----------
R = 
[      7.93671            0            0  ]
[            0      7.93671            0  ]
[            0            0      104.879  ]
unit cell volume = 6606.47
G =
[   0.791661          0          0  ]
[         -0   0.791661          0  ]
[          0         -0   0.059909  ]
Minimum fftbox size, Smin = [  24  24  300  ]
Chosen fftbox size, S = [  24  24  300  ]

---------- Exchange Correlation functional ----------
Initalized PBE GGA exchange.
Initalized PBE GGA correlation.

---------- Setting up pseudopotentials ----------
Width of ionic core gaussian charges (only for fluid interactions / plotting) set to 0

Reading pseudopotential file '/net/software/testing/software/jdftx/1.7.0-foss-2021b-mkl/share/jdftx/pseudopotentials/SG15/Na_ONCV_PBE.upf':
  'Na' pseudopotential, 'PBE' functional
  Generated using ONCVPSP code by D. R. Hamann
  Author: Martin Schlipf and Francois Gygi  Date: 150915.
  9 valence electrons, 3 orbitals, 4 projectors, 1992 radial grid points, with lMax = 1
  Transforming local potential to a uniform radial grid of dG=0.02 with 814 points.
  Transforming nonlocal projectors to a uniform radial grid of dG=0.02 with 307 points.
    2S    l: 0   occupation:  2.0   eigenvalue: -2.085640
    2P    l: 1   occupation:  6.0   eigenvalue: -1.053708
    3S    l: 0   occupation:  1.0   eigenvalue: -0.100838
  Transforming atomic orbitals to a uniform radial grid of dG=0.02 with 307 points.
  Core radius for overlap checks: 2.01 bohrs.
  Reading pulay file /net/software/testing/software/jdftx/1.7.0-foss-2021b-mkl/share/jdftx/pseudopotentials/SG15/Na_ONCV_PBE.pulay ... using dE_dnG = -1.681960e+00 computed for Ecut = 10.

Initialized 1 species with 16 total atoms.

Folded 1 k-points by 11x11x1 to 121 k-points.

---------- Setting up k-points, bands, fillings ----------
Reduced to 21 k-points under symmetry. 
Computing the number of bands and number of electrons
Calculating initial fillings.
nElectrons: 144.000000   nBands: 80   nStates: 21

----- Setting up reduced wavefunction bases (one per k-point) -----
average nbasis = 9977.132 , ideal nbasis = 9978.462

----- Initializing Supercell corresponding to k-point mesh -----
Lattice vector linear combinations in supercell:
[  11   0   0  ]
[   0  11   0  ]
[   0   0   1  ]
Supercell lattice vectors:
[  87.3039  0  0  ]
[  0  87.3039  0  ]
[  0  0  104.879  ]

---------- Setting up coulomb interaction ----------
Setting up double-sized grid for truncated Coulomb potentials:
R = 
[      7.93671            0            0  ]
[            0      7.93671            0  ]
[            0            0      209.758  ]
unit cell volume = 13212.9
G =
[   0.791661          0          0  ]
[         -0   0.791661          0  ]
[          0         -0  0.0299545  ]
Chosen fftbox size, S = [  24  24  600  ]
Integer grid location selected as the embedding center:
   Grid: [  0  0  150  ]
   Lattice: [  0  0  0.5  ]
   Cartesian: [  0  0  52.4394  ]
Constructing Wigner-Seitz cell: 6 faces (6 quadrilaterals, 0 hexagons)
Range-separation parameter for embedded mesh potentials due to point charges: 0.745922 bohrs.
Initialized slab truncation along lattice direction 001

---------- Setting up 2D ewald sum ----------
Optimum gaussian width for ewald sums = 4.734710 bohr.
Real space sums over 225 unit cells with max indices [  7  7  0  ]
Reciprocal space sums over 81 terms with max indices [  4  4  0  ]

---------- Allocating electronic variables ----------
Initializing wave functions:  linear combination of atomic orbitals
Na pseudo-atom occupations:   s ( 2 1 )  p ( 6 )
	FillingsUpdate:  mu: +0.286814802  nElectrons: 144.000000
LCAOMinimize: Iter:   0  F: -666.7226553110797340  |grad|_K:  6.855e-03  alpha:  1.000e+00
LCAOMinimize: 	Step increased F by 6.503714e-01, reducing alpha to 8.839854e-03.
	FillingsUpdate:  mu: +0.121357382  nElectrons: 144.000000
LCAOMinimize: Iter:   1  F: -666.7684797633487506  |grad|_K:  4.119e-03  alpha:  8.840e-03  linmin: -2.128e-01  cgtest:  9.885e-01  t[s]:      2.93
LCAOMinimize: Encountered beta<0, resetting CG.
	FillingsUpdate:  mu: -0.113927963  nElectrons: 144.000000
LCAOMinimize: Iter:   2  F: -666.7951236814213871  |grad|_K:  1.024e-03  alpha:  2.303e-02  linmin:  1.544e-02  cgtest: -9.242e-02  t[s]:      3.82
LCAOMinimize: 	Predicted alpha/alphaT>3.000000, increasing alphaT to 6.910095e-02.
	FillingsUpdate:  mu: -0.158192895  nElectrons: 144.000000
LCAOMinimize: Iter:   3  F: -666.8016550146707004  |grad|_K:  4.753e-04  alpha:  9.312e-02  linmin:  1.507e-03  cgtest:  1.546e-01  t[s]:      5.01
	FillingsUpdate:  mu: -0.121204391  nElectrons: 144.000000
LCAOMinimize: Iter:   4  F: -666.8028343922042041  |grad|_K:  7.149e-04  alpha:  7.613e-02  linmin:  2.000e-05  cgtest:  9.698e-03  t[s]:      5.91
	FillingsUpdate:  mu: -0.141408573  nElectrons: 144.000000
LCAOMinimize: Iter:   5  F: -666.8069919896528290  |grad|_K:  3.849e-04  alpha:  1.179e-01  linmin: -2.110e-04  cgtest: -5.022e-02  t[s]:      6.81
	FillingsUpdate:  mu: -0.166388793  nElectrons: 144.000000
LCAOMinimize: Iter:   6  F: -666.8089253651406807  |grad|_K:  2.961e-04  alpha:  1.879e-01  linmin: -1.887e-05  cgtest: -5.597e-02  t[s]:      7.71
	FillingsUpdate:  mu: -0.146331563  nElectrons: 144.000000
LCAOMinimize: Iter:   7  F: -666.8091865498533934  |grad|_K:  2.696e-04  alpha:  4.315e-02  linmin: -2.332e-05  cgtest: -3.950e-03  t[s]:      8.61
	FillingsUpdate:  mu: -0.142655789  nElectrons: 144.000000
LCAOMinimize: Iter:   8  F: -666.8095804049023627  |grad|_K:  3.397e-05  alpha:  7.867e-02  linmin:  3.879e-04  cgtest: -7.187e-02  t[s]:      9.51
	FillingsUpdate:  mu: -0.145510680  nElectrons: 144.000000
LCAOMinimize: Iter:   9  F: -666.8095866514235013  |grad|_K:  4.224e-05  alpha:  7.893e-02  linmin:  9.423e-06  cgtest:  3.245e-03  t[s]:     10.41
	FillingsUpdate:  mu: -0.144373640  nElectrons: 144.000000
LCAOMinimize: Iter:  10  F: -666.8095920400196519  |grad|_K:  1.942e-05  alpha:  4.383e-02  linmin: -8.707e-06  cgtest: -5.418e-03  t[s]:     11.31
LCAOMinimize: 	Predicted alpha/alphaT>3.000000, increasing alphaT to 1.314842e-01.
	FillingsUpdate:  mu: -0.143047009  nElectrons: 144.000000
LCAOMinimize: Iter:  11  F: -666.8095975309963706  |grad|_K:  1.345e-05  alpha:  2.113e-01  linmin: -9.581e-07  cgtest: -1.140e-03  t[s]:     12.51
	FillingsUpdate:  mu: -0.143695025  nElectrons: 144.000000
LCAOMinimize: Iter:  12  F: -666.8095978479720998  |grad|_K:  6.421e-06  alpha:  2.543e-02  linmin: -3.204e-05  cgtest:  1.019e-03  t[s]:     13.41
LCAOMinimize: 	Predicted alpha/alphaT>3.000000, increasing alphaT to 7.629308e-02.
	FillingsUpdate:  mu: -0.144043941  nElectrons: 144.000000
LCAOMinimize: Iter:  13  F: -666.8095983742609860  |grad|_K:  6.040e-06  alpha:  1.849e-01  linmin: -4.831e-05  cgtest:  1.037e-03  t[s]:     14.61
LCAOMinimize: Converged (|Delta F|<1.000000e-06 for 2 iters).


---- Citations for features of the code used in this run ----

   Software package:
      R. Sundararaman, K. Letchworth-Weaver, K.A. Schwarz, D. Gunceler, Y. Ozhabes and T.A. Arias, 'JDFTx: software for joint density-functional theory', SoftwareX 6, 278 (2017)

   gga-PBE exchange-correlation functional:
      J.P. Perdew, K. Burke and M. Ernzerhof, Phys. Rev. Lett. 77, 3865 (1996)

   Pseudopotentials:
      M Schlipf and F Gygi, Comput. Phys. Commun. 196, 36 (2015)

   Truncated Coulomb potentials:
      R. Sundararaman and T.A. Arias, Phys. Rev. B 87, 165122 (2013)

   Total energy minimization with Auxiliary Hamiltonian:
      C. Freysoldt, S. Boeck, and J. Neugebauer, Phys. Rev. B 79, 241103(R) (2009)

   Linear-tetrahedron sampling for density of states:
      G. Lehmann and M. Taut, Phys. status solidi (b) 54, 469 (1972)

This list may not be complete. Please suggest additional citations or
report any other bugs at https://github.com/shankar1729/jdftx/issues

Initialization completed successfully at t[s]:     14.72


-------- Electronic minimization -----------
	FillingsUpdate:  mu: -0.144043940  nElectrons: 144.000000
ElecMinimize: Iter:   0  F: -666.809598374268262  |grad|_K:  4.408e-04  alpha:  1.000e+00
	FillingsUpdate:  mu: -0.125543187  nElectrons: 144.000000
	SubspaceRotationAdjust: set factor to 1
ElecMinimize: Iter:   1  F: -667.762006573007739  |grad|_K:  1.124e-04  alpha:  2.921e-01  linmin:  2.504e-03  t[s]:     16.94
	FillingsUpdate:  mu: -0.232263602  nElectrons: 144.000000
	SubspaceRotationAdjust: set factor to 0.567
ElecMinimize: Iter:   2  F: -667.830688805534464  |grad|_K:  1.341e-04  alpha:  3.246e-01  linmin:  3.494e-05  t[s]:     18.29
	FillingsUpdate:  mu: -0.130786593  nElectrons: 144.000000
	SubspaceRotationAdjust: set factor to 0.315
ElecMinimize: Iter:   3  F: -667.838124399218714  |grad|_K:  4.814e-05  alpha:  2.418e-02  linmin: -1.876e-04  t[s]:     19.66
ElecMinimize: 	Predicted alpha/alphaT>3.000000, increasing alphaT to 7.253730e-02.
ElecMinimize: 	Predicted alpha/alphaT>3.000000, increasing alphaT to 2.176119e-01.
	FillingsUpdate:  mu: -0.040139418  nElectrons: 144.000000
	SubspaceRotationAdjust: set factor to 0.19
ElecMinimize: Iter:   4  F: -667.850864138758197  |grad|_K:  7.567e-05  alpha:  3.210e-01  linmin:  5.180e-06  t[s]:     21.87
	FillingsUpdate:  mu: -0.108832501  nElectrons: 144.000000
	SubspaceRotationAdjust: set factor to 0.226
ElecMinimize: Iter:   5  F: -667.860696512292520  |grad|_K:  4.197e-05  alpha:  1.006e-01  linmin: -1.021e-04  t[s]:     23.22
	FillingsUpdate:  mu: -0.197318102  nElectrons: 144.000000
	SubspaceRotationAdjust: set factor to 0.148
ElecMinimize: Iter:   6  F: -667.869573977422647  |grad|_K:  6.465e-05  alpha:  2.979e-01  linmin:  1.549e-04  t[s]:     24.57
	FillingsUpdate:  mu: -0.153858449  nElectrons: 144.000000

Dumping 'X.fillings' ... done
Dumping 'X.wfns' ... done
Dumping 'X.force' ... done
Dumping 'X.eigenvals' ... done
	SubspaceRotationAdjust: set factor to 0.24
ElecMinimize: Iter:   7  F: -667.882209089559183  |grad|_K:  4.354e-05  alpha:  1.812e-01  linmin: -7.125e-06  t[s]:     26.09
	FillingsUpdate:  mu: -0.079511083  nElectrons: 144.000000
	SubspaceRotationAdjust: set factor to 0.201
ElecMinimize: Iter:   8  F: -667.889168605198620  |grad|_K:  4.843e-05  alpha:  2.184e-01  linmin:  7.579e-05  t[s]:     27.48
	FillingsUpdate:  mu: -0.114188467  nElectrons: 144.000000
	SubspaceRotationAdjust: set factor to 0.266
ElecMinimize: Iter:   9  F: -667.896772145819455  |grad|_K:  2.808e-05  alpha:  1.943e-01  linmin:  1.971e-05  t[s]:     28.83
	FillingsUpdate:  mu: -0.149534718  nElectrons: 144.000000
	SubspaceRotationAdjust: set factor to 0.189
ElecMinimize: Iter:  10  F: -667.900438869141226  |grad|_K:  3.339e-05  alpha:  2.774e-01  linmin:  3.351e-04  t[s]:     30.17
	FillingsUpdate:  mu: -0.105602774  nElectrons: 144.000000
	SubspaceRotationAdjust: set factor to 0.151
ElecMinimize: Iter:  11  F: -667.902801225295093  |grad|_K:  1.788e-05  alpha:  1.254e-01  linmin: -3.598e-04  t[s]:     31.52
	FillingsUpdate:  mu: -0.086337586  nElectrons: 144.000000
	SubspaceRotationAdjust: set factor to 0.137
ElecMinimize: Iter:  12  F: -667.904701449464142  |grad|_K:  1.887e-05  alpha:  3.518e-01  linmin:  5.449e-05  t[s]:     32.87
	FillingsUpdate:  mu: -0.116465934  nElectrons: 144.000000
	SubspaceRotationAdjust: set factor to 0.11
	SubspaceRotationAdjust: resetting CG because factor has changed by 0.109762
ElecMinimize: 	State modified externally: resetting search direction.
ElecMinimize: Iter:  13  F: -667.905979730101990  |grad|_K:  1.455e-05  alpha:  2.127e-01
	FillingsUpdate:  mu: -0.103967846  nElectrons: 144.000000
	SubspaceRotationAdjust: set factor to 0.19
ElecMinimize: Iter:  14  F: -667.907058356550920  |grad|_K:  9.527e-06  alpha:  3.027e-01  linmin:  1.313e-05  t[s]:     36.30
	FillingsUpdate:  mu: -0.121553360  nElectrons: 144.000000

Dumping 'X.fillings' ... done
Dumping 'X.wfns' ... done
Dumping 'X.force' ... done
Dumping 'X.eigenvals' ... done
	SubspaceRotationAdjust: set factor to 0.172
ElecMinimize: Iter:  15  F: -667.908025007665515  |grad|_K:  1.110e-05  alpha:  6.339e-01  linmin:  1.807e-05  t[s]:     37.85
	FillingsUpdate:  mu: -0.101933287  nElectrons: 144.000000
	SubspaceRotationAdjust: set factor to 0.124
ElecMinimize: Iter:  16  F: -667.908748086594528  |grad|_K:  1.204e-05  alpha:  3.466e-01  linmin: -2.406e-05  t[s]:     39.20
	FillingsUpdate:  mu: -0.122356681  nElectrons: 144.000000
	SubspaceRotationAdjust: set factor to 0.0865
ElecMinimize: Iter:  17  F: -667.909479032607123  |grad|_K:  8.758e-06  alpha:  2.980e-01  linmin:  1.534e-05  t[s]:     40.55
	FillingsUpdate:  mu: -0.117544913  nElectrons: 144.000000
	SubspaceRotationAdjust: set factor to 0.0974
ElecMinimize: Iter:  18  F: -667.910179780313229  |grad|_K:  6.944e-06  alpha:  5.456e-01  linmin:  1.156e-05  t[s]:     41.91
	FillingsUpdate:  mu: -0.108858950  nElectrons: 144.000000
	SubspaceRotationAdjust: set factor to 0.0902
ElecMinimize: Iter:  19  F: -667.910555801860482  |grad|_K:  5.765e-06  alpha:  4.644e-01  linmin:  5.459e-06  t[s]:     43.26
	FillingsUpdate:  mu: -0.119603518  nElectrons: 144.000000
	SubspaceRotationAdjust: set factor to 0.0751
ElecMinimize: Iter:  20  F: -667.910830842518521  |grad|_K:  5.501e-06  alpha:  4.925e-01  linmin:  1.640e-05  t[s]:     44.61
	FillingsUpdate:  mu: -0.114562016  nElectrons: 144.000000
	SubspaceRotationAdjust: set factor to 0.0722
ElecMinimize: Iter:  21  F: -667.911147421292640  |grad|_K:  5.559e-06  alpha:  6.247e-01  linmin:  1.531e-05  t[s]:     45.96
	FillingsUpdate:  mu: -0.115026154  nElectrons: 144.000000
	SubspaceRotationAdjust: set factor to 0.0748
ElecMinimize: Iter:  22  F: -667.911454613112710  |grad|_K:  4.858e-06  alpha:  5.929e-01  linmin:  1.047e-05  t[s]:     47.31
	FillingsUpdate:  mu: -0.118315527  nElectrons: 144.000000

Dumping 'X.fillings' ... done
Dumping 'X.wfns' ... done
Dumping 'X.force' ... done
Dumping 'X.eigenvals' ... done
	SubspaceRotationAdjust: set factor to 0.074
ElecMinimize: Iter:  23  F: -667.911609481613141  |grad|_K:  3.417e-06  alpha:  3.904e-01  linmin: -5.091e-07  t[s]:     48.84
	FillingsUpdate:  mu: -0.116035368  nElectrons: 144.000000
	SubspaceRotationAdjust: set factor to 0.0779
ElecMinimize: Iter:  24  F: -667.911691524866228  |grad|_K:  2.421e-06  alpha:  4.176e-01  linmin:  6.456e-06  t[s]:     50.20
	FillingsUpdate:  mu: -0.114717078  nElectrons: 144.000000
	SubspaceRotationAdjust: set factor to 0.0808
ElecMinimize: Iter:  25  F: -667.911753617098498  |grad|_K:  2.416e-06  alpha:  6.301e-01  linmin:  2.266e-05  t[s]:     51.55
	FillingsUpdate:  mu: -0.114809191  nElectrons: 144.000000
	SubspaceRotationAdjust: set factor to 0.085
ElecMinimize: Iter:  26  F: -667.911799616365897  |grad|_K:  2.094e-06  alpha:  4.686e-01  linmin:  5.612e-06  t[s]:     52.90
	FillingsUpdate:  mu: -0.114250693  nElectrons: 144.000000
	SubspaceRotationAdjust: set factor to 0.0894
ElecMinimize: Iter:  27  F: -667.911844964961574  |grad|_K:  2.182e-06  alpha:  6.152e-01  linmin:  1.749e-05  t[s]:     54.26
	FillingsUpdate:  mu: -0.114947007  nElectrons: 144.000000
	SubspaceRotationAdjust: set factor to 0.0942
ElecMinimize: Iter:  28  F: -667.911885863309294  |grad|_K:  1.746e-06  alpha:  5.112e-01  linmin:  7.705e-06  t[s]:     55.60
	FillingsUpdate:  mu: -0.114523174  nElectrons: 144.000000
	SubspaceRotationAdjust: set factor to 0.0974
ElecMinimize: Iter:  29  F: -667.911910749708227  |grad|_K:  1.645e-06  alpha:  4.853e-01  linmin:  4.027e-06  t[s]:     57.01
	FillingsUpdate:  mu: -0.115212386  nElectrons: 144.000000
	SubspaceRotationAdjust: set factor to 0.101
ElecMinimize: Iter:  30  F: -667.911939730608196  |grad|_K:  1.689e-06  alpha:  6.369e-01  linmin:  1.019e-05  t[s]:     58.35
	FillingsUpdate:  mu: -0.115490472  nElectrons: 144.000000

Dumping 'X.fillings' ... done
Dumping 'X.wfns' ... done
Dumping 'X.force' ... done
Dumping 'X.eigenvals' ... done
	SubspaceRotationAdjust: set factor to 0.104
ElecMinimize: Iter:  31  F: -667.911966012469975  |grad|_K:  1.534e-06  alpha:  5.481e-01  linmin:  4.877e-06  t[s]:     59.89
	FillingsUpdate:  mu: -0.114566139  nElectrons: 144.000000
	SubspaceRotationAdjust: set factor to 0.103
ElecMinimize: Iter:  32  F: -667.911983825837410  |grad|_K:  1.205e-06  alpha:  4.504e-01  linmin:  2.608e-06  t[s]:     61.25
	FillingsUpdate:  mu: -0.115468455  nElectrons: 144.000000
	SubspaceRotationAdjust: set factor to 0.0997
ElecMinimize: Iter:  33  F: -667.911994463918631  |grad|_K:  9.415e-07  alpha:  4.356e-01  linmin:  3.307e-06  t[s]:     62.60
	FillingsUpdate:  mu: -0.114627313  nElectrons: 144.000000
	SubspaceRotationAdjust: set factor to 0.0967
ElecMinimize: Iter:  34  F: -667.912001740855430  |grad|_K:  8.488e-07  alpha:  4.881e-01  linmin:  7.506e-07  t[s]:     63.95
	FillingsUpdate:  mu: -0.115364979  nElectrons: 144.000000
	SubspaceRotationAdjust: set factor to 0.0943
ElecMinimize: Iter:  35  F: -667.912007446998587  |grad|_K:  7.686e-07  alpha:  4.707e-01  linmin:  1.445e-06  t[s]:     65.31
	FillingsUpdate:  mu: -0.114870662  nElectrons: 144.000000
	SubspaceRotationAdjust: set factor to 0.0945
ElecMinimize: Iter:  36  F: -667.912012709261035  |grad|_K:  6.934e-07  alpha:  5.296e-01  linmin:  4.923e-07  t[s]:     66.66
	FillingsUpdate:  mu: -0.115060556  nElectrons: 144.000000
	SubspaceRotationAdjust: set factor to 0.0988
ElecMinimize: Iter:  37  F: -667.912016962064627  |grad|_K:  6.213e-07  alpha:  5.258e-01  linmin:  2.810e-06  t[s]:     68.00
	FillingsUpdate:  mu: -0.115393352  nElectrons: 144.000000
	SubspaceRotationAdjust: set factor to 0.102
ElecMinimize: Iter:  38  F: -667.912020001086489  |grad|_K:  5.496e-07  alpha:  4.681e-01  linmin:  1.837e-06  t[s]:     69.36
	FillingsUpdate:  mu: -0.114838908  nElectrons: 144.000000

Dumping 'X.fillings' ... done
Dumping 'X.wfns' ... done
Dumping 'X.force' ... done
Dumping 'X.eigenvals' ... done
	SubspaceRotationAdjust: set factor to 0.0993
ElecMinimize: Iter:  39  F: -667.912023003641821  |grad|_K:  6.061e-07  alpha:  5.908e-01  linmin: -1.508e-07  t[s]:     70.87
	FillingsUpdate:  mu: -0.115592332  nElectrons: 144.000000
	SubspaceRotationAdjust: set factor to 0.0916
ElecMinimize: Iter:  40  F: -667.912026431024401  |grad|_K:  5.962e-07  alpha:  5.543e-01  linmin:  2.782e-06  t[s]:     72.22
	FillingsUpdate:  mu: -0.115075602  nElectrons: 144.000000
	SubspaceRotationAdjust: set factor to 0.0883
ElecMinimize: Iter:  41  F: -667.912029251917943  |grad|_K:  5.408e-07  alpha:  4.717e-01  linmin: -1.112e-07  t[s]:     73.57
	FillingsUpdate:  mu: -0.115229266  nElectrons: 144.000000
	SubspaceRotationAdjust: set factor to 0.0907
ElecMinimize: Iter:  42  F: -667.912031857111629  |grad|_K:  4.793e-07  alpha:  5.294e-01  linmin:  3.640e-06  t[s]:     74.92
	FillingsUpdate:  mu: -0.115340632  nElectrons: 144.000000
	SubspaceRotationAdjust: set factor to 0.0936
ElecMinimize: Iter:  43  F: -667.912033681324715  |grad|_K:  4.158e-07  alpha:  4.720e-01  linmin: -1.786e-06  t[s]:     76.27
	FillingsUpdate:  mu: -0.114986908  nElectrons: 144.000000
	SubspaceRotationAdjust: set factor to 0.0928
ElecMinimize: Iter:  44  F: -667.912035189662561  |grad|_K:  3.995e-07  alpha:  5.184e-01  linmin:  7.808e-08  t[s]:     77.62
	FillingsUpdate:  mu: -0.115385473  nElectrons: 144.000000
	SubspaceRotationAdjust: set factor to 0.0892
ElecMinimize: Iter:  45  F: -667.912036591739479  |grad|_K:  3.785e-07  alpha:  5.221e-01  linmin:  1.972e-06  t[s]:     78.98
	FillingsUpdate:  mu: -0.115088107  nElectrons: 144.000000
	SubspaceRotationAdjust: set factor to 0.0905
ElecMinimize: Iter:  46  F: -667.912037799831751  |grad|_K:  3.407e-07  alpha:  5.013e-01  linmin: -3.527e-07  t[s]:     80.32
	FillingsUpdate:  mu: -0.115026605  nElectrons: 144.000000

Dumping 'X.fillings' ... done
Dumping 'X.wfns' ... done
Dumping 'X.force' ... done
Dumping 'X.eigenvals' ... done
	SubspaceRotationAdjust: set factor to 0.0971
ElecMinimize: Iter:  47  F: -667.912038778705778  |grad|_K:  3.008e-07  alpha:  5.010e-01  linmin:  2.153e-06  t[s]:     81.84
	FillingsUpdate:  mu: -0.115237602  nElectrons: 144.000000
	SubspaceRotationAdjust: set factor to 0.0977
ElecMinimize: Iter:  48  F: -667.912039583295154  |grad|_K:  2.971e-07  alpha:  5.284e-01  linmin: -4.460e-06  t[s]:     83.20
ElecMinimize: Converged (|Delta F|<1.000000e-06 for 2 iters).
Setting wave functions to eigenvectors of Hamiltonian

# Ionic positions in lattice coordinates:
ion Na   0.000000000000000   0.000000000000000   0.216220000000000 1
ion Na   0.500000000000000   0.500000000000000   0.254060000000000 1
ion Na   0.000000000000000   0.000000000000000   0.291890000000000 1
ion Na   0.500000000000000   0.500000000000000   0.329730000000000 1
ion Na   0.000000000000000   0.000000000000000   0.367570000000000 1
ion Na   0.500000000000000   0.500000000000000   0.405410000000000 1
ion Na   0.000000000000000   0.000000000000000   0.443240000000000 1
ion Na   0.500000000000000   0.500000000000000   0.481080000000000 1
ion Na   0.000000000000000   0.000000000000000   0.518920000000000 1
ion Na   0.500000000000000   0.500000000000000   0.556760000000000 1
ion Na   0.000000000000000   0.000000000000000   0.594590000000000 1
ion Na   0.500000000000000   0.500000000000000   0.632430000000000 1
ion Na   0.000000000000000   0.000000000000000   0.670270000000000 1
ion Na   0.500000000000000   0.500000000000000   0.708110000000000 1
ion Na   0.000000000000000   0.000000000000000   0.745940000000000 1
ion Na   0.500000000000000   0.500000000000000   0.783780000000000 1

# Forces in Lattice coordinates:
force Na   0.000000000000000  -0.000000000000000   0.038598763970768 1
force Na  -0.000000000000000  -0.000000000000000   0.019774154297185 1
force Na   0.000000000000000   0.000000000000000  -0.020357699927157 1
force Na   0.000000000000000   0.000000000000000  -0.036163520280908 1
force Na   0.000000000000000   0.000000000000000  -0.004193587540145 1
force Na   0.000000000000000  -0.000000000000000  -0.047993065241287 1
force Na  -0.000000000000000   0.000000000000000  -0.026127979905500 1
force Na   0.000000000000000   0.000000000000000   0.013559168818006 1
force Na   0.000000000000000   0.000000000000000  -0.013559168818006 1
force Na   0.000000000000000   0.000000000000000   0.026127979905955 1
force Na   0.000000000000000  -0.000000000000000   0.047993065242196 1
force Na   0.000000000000000   0.000000000000000   0.004193587541054 1
force Na   0.000000000000000  -0.000000000000000   0.036163520280908 1
force Na   0.000000000000000   0.000000000000000   0.020357699925338 1
force Na  -0.000000000000000  -0.000000000000000  -0.019774154297185 1
force Na   0.000000000000000   0.000000000000000  -0.038598763970768 1

# Energy components:
   Eewald =   -22140.8827821708000556
       EH =   -21623.5006014215032337
     Eloc =    43058.7971890498374705
      Enl =     -184.7842564282680939
   Epulay =       -0.0054155817924255
      Exc =      -95.6475707998711471
       KE =      318.1694702360859424
-------------------------------------
     Etot =     -667.8539671163080129
       TS =        0.0580724669871648
-------------------------------------
        F =     -667.9120395832951544

IonicMinimize: Iter:   0  F: -667.912039583295154  |grad|_K:  1.604e-04  t[s]:     83.47
IonicMinimize: None of the convergence criteria satisfied after 0 iterations.

#--- Lowdin population analysis ---
# oxidation-state Na +0.073 +0.048 +0.039 +0.049 +0.045 +0.044 +0.045 +0.045 +0.045 +0.045 +0.044 +0.045 +0.049 +0.039 +0.048 +0.073


Dumping 'X.fillings' ... done
Dumping 'X.wfns' ... done
Dumping 'X.ionpos' ... done
Dumping 'X.lattice' ... done
Dumping 'X.n' ... done
Dumping 'X.eigenvals' ... done
Dumping 'X.eigStats' ... 
	eMin: -2.309305 at state 1 ( [ +0.000000 +0.090909 +0.000000 ] spin 0 )
	HOMO: -0.115347 at state 10 ( [ +0.090909 +0.454545 +0.000000 ] spin 0 )
	mu  : -0.115238
	LUMO: -0.115196 at state 13 ( [ +0.181818 +0.363636 +0.000000 ] spin 0 )
	eMax: -0.005148 at state 11 ( [ +0.181818 +0.181818 +0.000000 ] spin 0 )
	HOMO-LUMO gap: +0.000150
	Optical gap  : +0.002947 at state 5 ( [ +0.000000 +0.454545 +0.000000 ] spin 0 )
Dumping 'X.dos' ... done.
End date and time: Thu Nov  9 00:54:46 2023  (Duration: 0-0:01:23.95)
Done!

*************** JDFTx 1.7.0  ***************

Start date and time: Thu Nov  9 00:54:48 2023
Executable jdftx with command-line: -m -i X.in -o X.out
Running on hosts (process indices):  ac0376 (0-20)
Divided in process groups (process indices):  0 (0)  1 (1)  2 (2)  3 (3)  4 (4)  5 (5)  6 (6)  7 (7)  8 (8)  9 (9)  10 (10)  11 (11)  12 (12)  13 (13)  14 (14)  15 (15)  16 (16)  17 (17)  18 (18)  19 (19)  20 (20)
Resource initialization completed at t[s]:      0.02
Run totals: 21 processes, 21 threads, 0 GPUs


Input parsed successfully to the following command list (including defaults):

basis kpoint-dependent
cache-projectors no
coords-type Lattice
core-overlap-check vector
coulomb-interaction Slab 001
coulomb-truncation-embed 0 0 0.5
davidson-band-ratio 1.1
density-of-states Etol 1.000000e-06 Esigma 0.000000e+00 \
		Complete \
	Total \
		Occupied \
	Total
dump End State IonicPositions Lattice ElecDensity CoreDensity EigStats DOS
dump Electronic State Forces
dump Ionic State IonicPositions Forces Lattice DOS
dump-interval Electronic 8
dump-interval Ionic 4
dump-name X.$var
elec-cutoff 20
elec-eigen-algo Davidson
elec-ex-corr gga-PBE
elec-smearing Fermi 0.0095
electronic-minimize  \
	dirUpdateScheme      FletcherReeves \
	linminMethod         DirUpdateRecommended \
	nIterations          2000 \
	history              15 \
	knormThreshold       0 \
	energyDiffThreshold  1e-07 \
	nEnergyDiff          2 \
	alphaTstart          1 \
	alphaTmin            1e-10 \
	updateTestStepSize   yes \
	alphaTreduceFactor   0.1 \
	alphaTincreaseFactor 3 \
	nAlphaAdjustMax      3 \
	wolfeEnergy          0.0001 \
	wolfeGradient        0.9 \
	fdTest               no
exchange-regularization WignerSeitzTruncated
fluid None
fluid-ex-corr (null) lda-PZ
fluid-gummel-loop 10 1.000000e-05
fluid-minimize  \
	dirUpdateScheme      PolakRibiere \
	linminMethod         DirUpdateRecommended \
	nIterations          100 \
	history              15 \
	knormThreshold       0 \
	energyDiffThreshold  0 \
	nEnergyDiff          2 \
	alphaTstart          1 \
	alphaTmin            1e-10 \
	updateTestStepSize   yes \
	alphaTreduceFactor   0.1 \
	alphaTincreaseFactor 3 \
	nAlphaAdjustMax      3 \
	wolfeEnergy          0.0001 \
	wolfeGradient        0.9 \
	fdTest               no
fluid-solvent H2O 55.338 ScalarEOS \
	epsBulk 78.4 \
	pMol 0.92466 \
	epsInf 1.77 \
	Pvap 1.06736e-10 \
	sigmaBulk 4.62e-05 \
	Rvdw 2.61727 \
	Res 1.42 \
	tauNuc 343133 \
	poleEl 15 7 1
forces-output-coords Positions
ion Na   0.000000000000000   0.000000000000000   0.216220000000000 1
ion Na   0.500000000000000   0.500000000000000   0.254060000000000 1
ion Na   0.000000000000000   0.000000000000000   0.291890000000000 1
ion Na   0.500000000000000   0.500000000000000   0.329730000000000 1
ion Na   0.000000000000000   0.000000000000000   0.367570000000000 1
ion Na   0.500000000000000   0.500000000000000   0.405410000000000 1
ion Na   0.000000000000000   0.000000000000000   0.443240000000000 1
ion Na   0.500000000000000   0.500000000000000   0.481080000000000 1
ion Na   0.000000000000000   0.000000000000000   0.518920000000000 1
ion Na   0.500000000000000   0.500000000000000   0.556760000000000 1
ion Na   0.000000000000000   0.000000000000000   0.594590000000000 1
ion Na   0.500000000000000   0.500000000000000   0.632430000000000 1
ion Na   0.000000000000000   0.000000000000000   0.670270000000000 1
ion Na   0.500000000000000   0.500000000000000   0.708110000000000 1
ion Na   0.000000000000000   0.000000000000000   0.745940000000000 1
ion Na   0.500000000000000   0.500000000000000   0.783780000000000 1
ion-species SG15/$ID_ONCV_PBE.upf
ion-width 0
ionic-minimize  \
	dirUpdateScheme      L-BFGS \
	linminMethod         DirUpdateRecommended \
	nIterations          0 \
	history              15 \
	knormThreshold       0.0001 \
	energyDiffThreshold  1e-06 \
	nEnergyDiff          2 \
	alphaTstart          1 \
	alphaTmin            1e-10 \
	updateTestStepSize   yes \
	alphaTreduceFactor   0.1 \
	alphaTincreaseFactor 3 \
	nAlphaAdjustMax      3 \
	wolfeEnergy          0.0001 \
	wolfeGradient        0.9 \
	fdTest               no
kpoint   0.000000000000   0.000000000000   0.000000000000  1.00000000000000
kpoint-folding 11 11 1 
latt-move-scale 1 1 1
latt-scale 1 1 1 
lattice  \
	   7.936714821600003   -0.000000000000000   -0.000000000000000  \
	   0.000000000000000    7.936714821600003   -0.000000000000000  \
	   0.000000000000000    0.000000000000000  104.878881161999999 
lattice-minimize  \
	dirUpdateScheme      L-BFGS \
	linminMethod         DirUpdateRecommended \
	nIterations          0 \
	history              15 \
	knormThreshold       0 \
	energyDiffThreshold  1e-06 \
	nEnergyDiff          2 \
	alphaTstart          1 \
	alphaTmin            1e-10 \
	updateTestStepSize   yes \
	alphaTreduceFactor   0.1 \
	alphaTincreaseFactor 3 \
	nAlphaAdjustMax      3 \
	wolfeEnergy          0.0001 \
	wolfeGradient        0.9 \
	fdTest               no
lcao-params -1 1e-06 0.0095
pcm-variant GLSSA13
spintype no-spin
subspace-rotation-factor 1 yes
symmetries automatic
symmetry-threshold 0.0001
wavefunction read X.wfns 80 10.000000



---------- Setting up symmetries ----------

Found 16 point-group symmetries of the bravais lattice
Found 16 space-group symmetries with basis
Applied RMS atom displacement 0 bohrs to make symmetries exact.

---------- Initializing the Grid ----------
R = 
[      7.93671            0            0  ]
[            0      7.93671            0  ]
[            0            0      104.879  ]
unit cell volume = 6606.47
G =
[   0.791661          0          0  ]
[         -0   0.791661          0  ]
[          0         -0   0.059909  ]
Minimum fftbox size, Smin = [  32  32  424  ]
Chosen fftbox size, S = [  32  32  432  ]

---------- Exchange Correlation functional ----------
Initalized PBE GGA exchange.
Initalized PBE GGA correlation.

---------- Setting up pseudopotentials ----------
Width of ionic core gaussian charges (only for fluid interactions / plotting) set to 0

Reading pseudopotential file '/net/software/testing/software/jdftx/1.7.0-foss-2021b-mkl/share/jdftx/pseudopotentials/SG15/Na_ONCV_PBE.upf':
  'Na' pseudopotential, 'PBE' functional
  Generated using ONCVPSP code by D. R. Hamann
  Author: Martin Schlipf and Francois Gygi  Date: 150915.
  9 valence electrons, 3 orbitals, 4 projectors, 1992 radial grid points, with lMax = 1
  Transforming local potential to a uniform radial grid of dG=0.02 with 1110 points.
  Transforming nonlocal projectors to a uniform radial grid of dG=0.02 with 432 points.
    2S    l: 0   occupation:  2.0   eigenvalue: -2.085640
    2P    l: 1   occupation:  6.0   eigenvalue: -1.053708
    3S    l: 0   occupation:  1.0   eigenvalue: -0.100838
  Transforming atomic orbitals to a uniform radial grid of dG=0.02 with 432 points.
  Core radius for overlap checks: 2.01 bohrs.
  Reading pulay file /net/software/testing/software/jdftx/1.7.0-foss-2021b-mkl/share/jdftx/pseudopotentials/SG15/Na_ONCV_PBE.pulay ... using dE_dnG = -2.946487e-03 computed for Ecut = 20.

Initialized 1 species with 16 total atoms.

Folded 1 k-points by 11x11x1 to 121 k-points.

---------- Setting up k-points, bands, fillings ----------
Reduced to 21 k-points under symmetry. 
Computing the number of bands and number of electrons
Calculating initial fillings.
nElectrons: 144.000000   nBands: 80   nStates: 21

----- Setting up reduced wavefunction bases (one per k-point) -----
average nbasis = 28222.008 , ideal nbasis = 28223.352

----- Initializing Supercell corresponding to k-point mesh -----
Lattice vector linear combinations in supercell:
[  11   0   0  ]
[   0  11   0  ]
[   0   0   1  ]
Supercell lattice vectors:
[  87.3039  0  0  ]
[  0  87.3039  0  ]
[  0  0  104.879  ]

---------- Setting up coulomb interaction ----------
Setting up double-sized grid for truncated Coulomb potentials:
R = 
[      7.93671            0            0  ]
[            0      7.93671            0  ]
[            0            0      209.758  ]
unit cell volume = 13212.9
G =
[   0.791661          0          0  ]
[         -0   0.791661          0  ]
[          0         -0  0.0299545  ]
Chosen fftbox size, S = [  32  32  864  ]
Integer grid location selected as the embedding center:
   Grid: [  0  0  216  ]
   Lattice: [  0  0  0.5  ]
   Cartesian: [  0  0  52.4394  ]
Constructing Wigner-Seitz cell: 6 faces (6 quadrilaterals, 0 hexagons)
Range-separation parameter for embedded mesh potentials due to point charges: 0.628283 bohrs.
Initialized slab truncation along lattice direction 001

---------- Setting up 2D ewald sum ----------
Optimum gaussian width for ewald sums = 4.734710 bohr.
Real space sums over 225 unit cells with max indices [  7  7  0  ]
Reciprocal space sums over 81 terms with max indices [  4  4  0  ]

---------- Allocating electronic variables ----------
Initializing wave functions:  reading from 'X.wfns'


---- Citations for features of the code used in this run ----

   Software package:
      R. Sundararaman, K. Letchworth-Weaver, K.A. Schwarz, D. Gunceler, Y. Ozhabes and T.A. Arias, 'JDFTx: software for joint density-functional theory', SoftwareX 6, 278 (2017)

   gga-PBE exchange-correlation functional:
      J.P. Perdew, K. Burke and M. Ernzerhof, Phys. Rev. Lett. 77, 3865 (1996)

   Pseudopotentials:
      M Schlipf and F Gygi, Comput. Phys. Commun. 196, 36 (2015)

   Truncated Coulomb potentials:
      R. Sundararaman and T.A. Arias, Phys. Rev. B 87, 165122 (2013)

   Total energy minimization with Auxiliary Hamiltonian:
      C. Freysoldt, S. Boeck, and J. Neugebauer, Phys. Rev. B 79, 241103(R) (2009)

   Linear-tetrahedron sampling for density of states:
      G. Lehmann and M. Taut, Phys. status solidi (b) 54, 469 (1972)

This list may not be complete. Please suggest additional citations or
report any other bugs at https://github.com/shankar1729/jdftx/issues

Initialization completed successfully at t[s]:      0.95


Setting the auxilliary hamiltonian equal to the subspace hamiltonian.

-------- Electronic minimization -----------
	FillingsUpdate:  mu: -0.035031850  nElectrons: 144.000000
ElecMinimize: Iter:   0  F: -667.866341900280986  |grad|_K:  1.021e-03  alpha:  1.000e+00
	FillingsUpdate:  mu: -0.910540218  nElectrons: 144.000000
	SubspaceRotationAdjust: set factor to 0.595
ElecMinimize: Iter:   1  F: -679.810907964123317  |grad|_K:  6.955e-04  alpha:  2.511e-01  linmin:  5.835e-03  t[s]:     12.21
	FillingsUpdate:  mu: +0.505513159  nElectrons: 144.000000
	SubspaceRotationAdjust: set factor to 0.257
ElecMinimize: Iter:   2  F: -680.309399469770483  |grad|_K:  4.360e-04  alpha:  4.425e-02  linmin:  4.612e-03  t[s]:     17.37
ElecMinimize: 	Predicted alpha/alphaT>3.000000, increasing alphaT to 1.327555e-01.
	FillingsUpdate:  mu: +0.184673187  nElectrons: 144.000000
	SubspaceRotationAdjust: set factor to 0.261
ElecMinimize: Iter:   3  F: -681.303888271571850  |grad|_K:  1.687e-04  alpha:  2.222e-01  linmin:  1.882e-04  t[s]:     24.04
	FillingsUpdate:  mu: -0.210335637  nElectrons: 144.000000
	SubspaceRotationAdjust: set factor to 0.146
ElecMinimize: Iter:   4  F: -681.457699528659987  |grad|_K:  8.748e-05  alpha:  1.111e-01  linmin: -4.403e-04  t[s]:     29.19
	FillingsUpdate:  mu: -0.133519833  nElectrons: 144.000000
	SubspaceRotationAdjust: set factor to 0.261
ElecMinimize: Iter:   5  F: -681.528965387268499  |grad|_K:  3.330e-05  alpha:  1.936e-01  linmin:  9.250e-05  t[s]:     34.37
	FillingsUpdate:  mu: -0.060283409  nElectrons: 144.000000
	SubspaceRotationAdjust: set factor to 0.211
ElecMinimize: Iter:   6  F: -681.540952950042424  |grad|_K:  2.191e-05  alpha:  2.285e-01  linmin:  1.516e-04  t[s]:     39.53
	FillingsUpdate:  mu: -0.113017449  nElectrons: 144.000000

Dumping 'X.fillings' ... done
Dumping 'X.wfns' ... done
Dumping 'X.force' ... done
Dumping 'X.eigenvals' ... done
	SubspaceRotationAdjust: set factor to 0.158
ElecMinimize: Iter:   7  F: -681.544785549698759  |grad|_K:  1.427e-05  alpha:  1.680e-01  linmin:  3.011e-05  t[s]:     45.05
ElecMinimize: 	Predicted alpha/alphaT>3.000000, increasing alphaT to 5.040969e-01.
	FillingsUpdate:  mu: -0.092115350  nElectrons: 144.000000
	SubspaceRotationAdjust: set factor to 0.18
ElecMinimize: Iter:   8  F: -681.549879473905094  |grad|_K:  1.494e-05  alpha:  5.289e-01  linmin:  2.336e-05  t[s]:     51.73
	FillingsUpdate:  mu: -0.091943192  nElectrons: 144.000000
	SubspaceRotationAdjust: set factor to 0.2
ElecMinimize: Iter:   9  F: -681.556680030943312  |grad|_K:  1.674e-05  alpha:  6.505e-01  linmin:  8.163e-05  t[s]:     56.89
	FillingsUpdate:  mu: -0.131477278  nElectrons: 144.000000
	SubspaceRotationAdjust: set factor to 0.174
ElecMinimize: Iter:  10  F: -681.560976800593266  |grad|_K:  1.542e-05  alpha:  2.930e-01  linmin: -3.437e-04  t[s]:     62.04
	FillingsUpdate:  mu: -0.098377996  nElectrons: 144.000000
	SubspaceRotationAdjust: set factor to 0.117
	SubspaceRotationAdjust: resetting CG because factor has changed by 0.117473
ElecMinimize: 	State modified externally: resetting search direction.
ElecMinimize: Iter:  11  F: -681.563177381957075  |grad|_K:  9.594e-06  alpha:  1.749e-01
	FillingsUpdate:  mu: -0.120447954  nElectrons: 144.000000
	SubspaceRotationAdjust: set factor to 0.121
ElecMinimize: Iter:  12  F: -681.564496834890633  |grad|_K:  7.088e-06  alpha:  3.022e-01  linmin:  1.361e-04  t[s]:     75.62
	FillingsUpdate:  mu: -0.094611210  nElectrons: 144.000000
	SubspaceRotationAdjust: set factor to 0.0811
ElecMinimize: Iter:  13  F: -681.565312270776076  |grad|_K:  5.634e-06  alpha:  3.425e-01  linmin:  2.541e-05  t[s]:     80.77
	FillingsUpdate:  mu: -0.103767387  nElectrons: 144.000000
	SubspaceRotationAdjust: set factor to 0.0691
ElecMinimize: Iter:  14  F: -681.565852503394126  |grad|_K:  2.961e-06  alpha:  3.590e-01  linmin:  3.016e-05  t[s]:     85.93
	FillingsUpdate:  mu: -0.101948862  nElectrons: 144.000000

Dumping 'X.fillings' ... done
Dumping 'X.wfns' ... done
Dumping 'X.force' ... done
Dumping 'X.eigenvals' ... done
	SubspaceRotationAdjust: set factor to 0.0761
ElecMinimize: Iter:  15  F: -681.566055805143947  |grad|_K:  2.436e-06  alpha:  4.890e-01  linmin:  8.653e-07  t[s]:     91.48
	FillingsUpdate:  mu: -0.098719484  nElectrons: 144.000000
	SubspaceRotationAdjust: set factor to 0.0795
ElecMinimize: Iter:  16  F: -681.566234213207167  |grad|_K:  2.138e-06  alpha:  6.335e-01  linmin:  5.514e-06  t[s]:     96.64
	FillingsUpdate:  mu: -0.103228342  nElectrons: 144.000000
	SubspaceRotationAdjust: set factor to 0.0767
ElecMinimize: Iter:  17  F: -681.566346120405910  |grad|_K:  1.857e-06  alpha:  5.158e-01  linmin:  6.578e-06  t[s]:    101.80
	FillingsUpdate:  mu: -0.099764563  nElectrons: 144.000000
	SubspaceRotationAdjust: set factor to 0.0776
ElecMinimize: Iter:  18  F: -681.566440561086097  |grad|_K:  1.943e-06  alpha:  5.772e-01  linmin:  5.246e-06  t[s]:    106.95
	FillingsUpdate:  mu: -0.100069975  nElectrons: 144.000000
	SubspaceRotationAdjust: set factor to 0.0818
ElecMinimize: Iter:  19  F: -681.566579902185140  |grad|_K:  1.811e-06  alpha:  7.789e-01  linmin:  1.483e-05  t[s]:    112.10
	FillingsUpdate:  mu: -0.101928208  nElectrons: 144.000000
	SubspaceRotationAdjust: set factor to 0.0826
ElecMinimize: Iter:  20  F: -681.566653854376455  |grad|_K:  1.522e-06  alpha:  4.755e-01  linmin: -1.437e-06  t[s]:    117.25
	FillingsUpdate:  mu: -0.099974057  nElectrons: 144.000000
	SubspaceRotationAdjust: set factor to 0.0791
ElecMinimize: Iter:  21  F: -681.566715729584871  |grad|_K:  1.345e-06  alpha:  5.628e-01  linmin:  1.314e-05  t[s]:    122.49
	FillingsUpdate:  mu: -0.102014641  nElectrons: 144.000000
	SubspaceRotationAdjust: set factor to 0.075
ElecMinimize: Iter:  22  F: -681.566753061932445  |grad|_K:  9.003e-07  alpha:  4.350e-01  linmin:  2.655e-06  t[s]:    127.75
	FillingsUpdate:  mu: -0.101010860  nElectrons: 144.000000

Dumping 'X.fillings' ... done
Dumping 'X.wfns' ... done
Dumping 'X.force' ... done
Dumping 'X.eigenvals' ... done
	SubspaceRotationAdjust: set factor to 0.0737
ElecMinimize: Iter:  23  F: -681.566773378157677  |grad|_K:  7.719e-07  alpha:  5.283e-01  linmin:  4.375e-06  t[s]:    133.47
	FillingsUpdate:  mu: -0.101450915  nElectrons: 144.000000
	SubspaceRotationAdjust: set factor to 0.074
ElecMinimize: Iter:  24  F: -681.566787617624641  |grad|_K:  6.196e-07  alpha:  5.038e-01  linmin:  2.614e-06  t[s]:    138.96
	FillingsUpdate:  mu: -0.101570159  nElectrons: 144.000000
	SubspaceRotationAdjust: set factor to 0.0755
ElecMinimize: Iter:  25  F: -681.566797952674506  |grad|_K:  5.476e-07  alpha:  5.673e-01  linmin:  2.672e-06  t[s]:    144.34
	FillingsUpdate:  mu: -0.100898868  nElectrons: 144.000000
	SubspaceRotationAdjust: set factor to 0.0743
ElecMinimize: Iter:  26  F: -681.566805569430016  |grad|_K:  5.243e-07  alpha:  5.353e-01  linmin:  7.036e-06  t[s]:    149.71
	FillingsUpdate:  mu: -0.101738524  nElectrons: 144.000000
	SubspaceRotationAdjust: set factor to 0.0722
ElecMinimize: Iter:  27  F: -681.566813726818395  |grad|_K:  5.263e-07  alpha:  6.255e-01  linmin:  3.639e-06  t[s]:    155.13
	FillingsUpdate:  mu: -0.101333934  nElectrons: 144.000000
	SubspaceRotationAdjust: set factor to 0.0728
ElecMinimize: Iter:  28  F: -681.566821759144091  |grad|_K:  5.168e-07  alpha:  6.111e-01  linmin:  1.137e-05  t[s]:    160.51
	FillingsUpdate:  mu: -0.101139915  nElectrons: 144.000000
	SubspaceRotationAdjust: set factor to 0.0744
ElecMinimize: Iter:  29  F: -681.566829369504262  |grad|_K:  5.096e-07  alpha:  6.006e-01  linmin:  1.165e-05  t[s]:    165.89
	FillingsUpdate:  mu: -0.101809841  nElectrons: 144.000000
	SubspaceRotationAdjust: set factor to 0.0733
ElecMinimize: Iter:  30  F: -681.566836117675621  |grad|_K:  4.696e-07  alpha:  5.478e-01  linmin:  5.590e-08  t[s]:    171.29
	FillingsUpdate:  mu: -0.101187163  nElectrons: 144.000000

Dumping 'X.fillings' ... done
Dumping 'X.wfns' ... done
Dumping 'X.force' ... done
Dumping 'X.eigenvals' ... done
	SubspaceRotationAdjust: set factor to 0.0722
ElecMinimize: Iter:  31  F: -681.566842196944663  |grad|_K:  4.293e-07  alpha:  5.810e-01  linmin:  2.110e-05  t[s]:    177.09
	FillingsUpdate:  mu: -0.101436922  nElectrons: 144.000000
	SubspaceRotationAdjust: set factor to 0.075
ElecMinimize: Iter:  32  F: -681.566846738591721  |grad|_K:  4.102e-07  alpha:  5.197e-01  linmin: -3.815e-06  t[s]:    182.52
	FillingsUpdate:  mu: -0.101675111  nElectrons: 144.000000
	SubspaceRotationAdjust: set factor to 0.0772
ElecMinimize: Iter:  33  F: -681.566851919849796  |grad|_K:  4.264e-07  alpha:  6.484e-01  linmin: -1.568e-05  t[s]:    187.90
	FillingsUpdate:  mu: -0.100953721  nElectrons: 144.000000
	SubspaceRotationAdjust: set factor to 0.0768
ElecMinimize: Iter:  34  F: -681.566856823294302  |grad|_K:  4.321e-07  alpha:  5.678e-01  linmin: -1.752e-05  t[s]:    193.29
	FillingsUpdate:  mu: -0.101421169  nElectrons: 144.000000
	SubspaceRotationAdjust: set factor to 0.0774
ElecMinimize: Iter:  35  F: -681.566862983851593  |grad|_K:  5.113e-07  alpha:  6.934e-01  linmin: -6.955e-05  t[s]:    198.67
	FillingsUpdate:  mu: -0.101053884  nElectrons: 144.000000
	SubspaceRotationAdjust: set factor to 0.0803
ElecMinimize: Iter:  36  F: -681.566872261232675  |grad|_K:  6.135e-07  alpha:  7.450e-01  linmin:  2.061e-04  t[s]:    204.07
	FillingsUpdate:  mu: -0.100882254  nElectrons: 144.000000
	SubspaceRotationAdjust: set factor to 0.0851
ElecMinimize: Iter:  37  F: -681.566878789205361  |grad|_K:  4.653e-07  alpha:  2.622e-01  linmin: -3.393e-03  t[s]:    209.47
	FillingsUpdate:  mu: -0.101102200  nElectrons: 144.000000
	SubspaceRotationAdjust: set factor to 0.0883
ElecMinimize: Iter:  38  F: -681.566883033050317  |grad|_K:  4.317e-07  alpha:  3.091e-01  linmin:  9.471e-04  t[s]:    214.87
	FillingsUpdate:  mu: -0.101206724  nElectrons: 144.000000

Dumping 'X.fillings' ... done
Dumping 'X.wfns' ... done
Dumping 'X.force' ... done
Dumping 'X.eigenvals' ... done
	SubspaceRotationAdjust: set factor to 0.0914
ElecMinimize: Iter:  39  F: -681.566884528176502  |grad|_K:  3.679e-07  alpha:  1.783e-01  linmin: -1.798e-04  t[s]:    220.67
	FillingsUpdate:  mu: -0.101207605  nElectrons: 144.000000
	SubspaceRotationAdjust: set factor to 0.0968
ElecMinimize: Iter:  40  F: -681.566885491609241  |grad|_K:  2.931e-07  alpha:  1.466e-01  linmin:  1.173e-04  t[s]:    226.05
	FillingsUpdate:  mu: -0.101177613  nElectrons: 144.000000
	SubspaceRotationAdjust: set factor to 0.104
ElecMinimize: Iter:  41  F: -681.566886172573163  |grad|_K:  2.820e-07  alpha:  1.684e-01  linmin:  1.268e-04  t[s]:    231.44
	FillingsUpdate:  mu: -0.101192047  nElectrons: 144.000000
	SubspaceRotationAdjust: set factor to 0.115
ElecMinimize: Iter:  42  F: -681.566886807434457  |grad|_K:  2.731e-07  alpha:  1.697e-01  linmin:  7.068e-05  t[s]:    236.83
	FillingsUpdate:  mu: -0.101268928  nElectrons: 144.000000
	SubspaceRotationAdjust: set factor to 0.131
ElecMinimize: Iter:  43  F: -681.566887396253946  |grad|_K:  2.739e-07  alpha:  1.671e-01  linmin:  4.246e-05  t[s]:    242.24
	FillingsUpdate:  mu: -0.101344870  nElectrons: 144.000000
	SubspaceRotationAdjust: set factor to 0.153
ElecMinimize: Iter:  44  F: -681.566888032527231  |grad|_K:  2.927e-07  alpha:  1.793e-01  linmin:  4.170e-05  t[s]:    247.67
	FillingsUpdate:  mu: -0.101325418  nElectrons: 144.000000
	SubspaceRotationAdjust: set factor to 0.184
ElecMinimize: Iter:  45  F: -681.566888722841099  |grad|_K:  3.019e-07  alpha:  1.704e-01  linmin:  1.759e-05  t[s]:    253.08
	FillingsUpdate:  mu: -0.101251697  nElectrons: 144.000000
	SubspaceRotationAdjust: set factor to 0.228
ElecMinimize: Iter:  46  F: -681.566889432076891  |grad|_K:  3.177e-07  alpha:  1.643e-01  linmin:  1.646e-05  t[s]:    258.50
	FillingsUpdate:  mu: -0.101287749  nElectrons: 144.000000

Dumping 'X.fillings' ... done
Dumping 'X.wfns' ... done
Dumping 'X.force' ... done
Dumping 'X.eigenvals' ... done
	SubspaceRotationAdjust: set factor to 0.287
ElecMinimize: Iter:  47  F: -681.566890226691271  |grad|_K:  3.489e-07  alpha:  1.662e-01  linmin:  5.841e-06  t[s]:    264.32
	FillingsUpdate:  mu: -0.101401337  nElectrons: 144.000000
	SubspaceRotationAdjust: set factor to 0.356
ElecMinimize: Iter:  48  F: -681.566891141395217  |grad|_K:  3.840e-07  alpha:  1.585e-01  linmin: -2.036e-06  t[s]:    269.71
	FillingsUpdate:  mu: -0.101297071  nElectrons: 144.000000
	SubspaceRotationAdjust: set factor to 0.44
ElecMinimize: Iter:  49  F: -681.566892154459879  |grad|_K:  4.024e-07  alpha:  1.448e-01  linmin: -6.742e-06  t[s]:    275.14
	FillingsUpdate:  mu: -0.101272649  nElectrons: 144.000000
	SubspaceRotationAdjust: set factor to 0.542
ElecMinimize: Iter:  50  F: -681.566893204404664  |grad|_K:  4.075e-07  alpha:  1.365e-01  linmin: -2.344e-05  t[s]:    280.54
	FillingsUpdate:  mu: -0.101443392  nElectrons: 144.000000
	SubspaceRotationAdjust: set factor to 0.643
ElecMinimize: Iter:  51  F: -681.566894228903948  |grad|_K:  4.140e-07  alpha:  1.294e-01  linmin: -3.121e-05  t[s]:    285.93
	FillingsUpdate:  mu: -0.101104953  nElectrons: 144.000000
	SubspaceRotationAdjust: set factor to 0.683
ElecMinimize: Iter:  52  F: -681.566895188732701  |grad|_K:  4.494e-07  alpha:  1.171e-01  linmin: -1.579e-05  t[s]:    291.33
	FillingsUpdate:  mu: -0.101670257  nElectrons: 144.000000
	SubspaceRotationAdjust: set factor to 0.614
ElecMinimize: Iter:  53  F: -681.566895935971957  |grad|_K:  4.667e-07  alpha:  7.675e-02  linmin: -1.382e-05  t[s]:    296.74
	FillingsUpdate:  mu: -0.101299497  nElectrons: 144.000000
	SubspaceRotationAdjust: set factor to 0.581
ElecMinimize: Iter:  54  F: -681.566896647378599  |grad|_K:  3.943e-07  alpha:  6.786e-02  linmin:  6.741e-05  t[s]:    302.17
	FillingsUpdate:  mu: -0.101414691  nElectrons: 144.000000

Dumping 'X.fillings' ... done
Dumping 'X.wfns' ... done
Dumping 'X.force' ... done
Dumping 'X.eigenvals' ... done
	SubspaceRotationAdjust: set factor to 0.675
ElecMinimize: Iter:  55  F: -681.566897214518917  |grad|_K:  3.658e-07  alpha:  8.009e-02  linmin:  2.162e-04  t[s]:    307.97
	FillingsUpdate:  mu: -0.101606245  nElectrons: 144.000000
	SubspaceRotationAdjust: set factor to 0.759
ElecMinimize: Iter:  56  F: -681.566897560069492  |grad|_K:  3.722e-07  alpha:  5.700e-02  linmin:  1.326e-05  t[s]:    313.42
	FillingsUpdate:  mu: -0.101504966  nElectrons: 144.000000
	SubspaceRotationAdjust: set factor to 0.966
	SubspaceRotationAdjust: resetting CG because factor has changed by 8.22055
ElecMinimize: 	State modified externally: resetting search direction.
ElecMinimize: Iter:  57  F: -681.566897897636863  |grad|_K:  3.823e-07  alpha:  5.116e-02
ElecMinimize: 	Predicted alpha/alphaT>3.000000, increasing alphaT to 1.534848e-01.
ElecMinimize: 	Predicted alpha/alphaT>3.000000, increasing alphaT to 4.604545e-01.
	FillingsUpdate:  mu: -0.101059705  nElectrons: 144.000000
	SubspaceRotationAdjust: set factor to 0.935
ElecMinimize: Iter:  58  F: -681.566903143269428  |grad|_K:  4.820e-07  alpha:  7.431e-01  linmin: -5.001e-04  t[s]:    330.71
	FillingsUpdate:  mu: -0.102312519  nElectrons: 144.000000
	SubspaceRotationAdjust: set factor to 0.521
ElecMinimize: Iter:  59  F: -681.566904421903928  |grad|_K:  1.047e-06  alpha:  1.125e-01  linmin:  1.172e-04  t[s]:    336.14
	FillingsUpdate:  mu: -0.101643848  nElectrons: 144.000000
	SubspaceRotationAdjust: set factor to 0.948
ElecMinimize: Iter:  60  F: -681.566907531546235  |grad|_K:  3.189e-07  alpha:  6.075e-02  linmin:  5.435e-05  t[s]:    341.57
ElecMinimize: 	Predicted alpha/alphaT>3.000000, increasing alphaT to 1.822446e-01.
	FillingsUpdate:  mu: -0.100624575  nElectrons: 144.000000
	SubspaceRotationAdjust: set factor to 0.505
ElecMinimize: Iter:  61  F: -681.566908478333744  |grad|_K:  7.712e-07  alpha:  1.967e-01  linmin:  1.362e-05  t[s]:    348.59
	FillingsUpdate:  mu: -0.101247524  nElectrons: 144.000000
	SubspaceRotationAdjust: set factor to 0.352
ElecMinimize: Iter:  62  F: -681.566909451233983  |grad|_K:  2.854e-07  alpha:  3.448e-02  linmin: -2.479e-05  t[s]:    354.02
ElecMinimize: 	Predicted alpha/alphaT>3.000000, increasing alphaT to 1.034296e-01.
ElecMinimize: 	Predicted alpha/alphaT>3.000000, increasing alphaT to 3.102887e-01.
	FillingsUpdate:  mu: -0.101909220  nElectrons: 144.000000

Dumping 'X.fillings' ... done
Dumping 'X.wfns' ... done
Dumping 'X.force' ... done
Dumping 'X.eigenvals' ... done
	SubspaceRotationAdjust: set factor to 0.28
ElecMinimize: Iter:  63  F: -681.566911028583377  |grad|_K:  3.210e-07  alpha:  4.079e-01  linmin:  2.089e-05  t[s]:    363.14
	FillingsUpdate:  mu: -0.101108613  nElectrons: 144.000000
	SubspaceRotationAdjust: set factor to 0.191
ElecMinimize: Iter:  64  F: -681.566911580669284  |grad|_K:  3.456e-07  alpha:  1.131e-01  linmin: -3.797e-06  t[s]:    368.55
	FillingsUpdate:  mu: -0.101036864  nElectrons: 144.000000
	SubspaceRotationAdjust: set factor to 0.262
ElecMinimize: Iter:  65  F: -681.566913211042447  |grad|_K:  2.693e-07  alpha:  2.877e-01  linmin:  2.142e-05  t[s]:    373.99
	FillingsUpdate:  mu: -0.101634432  nElectrons: 144.000000
	SubspaceRotationAdjust: set factor to 0.169
ElecMinimize: Iter:  66  F: -681.566914042983740  |grad|_K:  3.382e-07  alpha:  2.419e-01  linmin:  5.507e-06  t[s]:    379.42
	FillingsUpdate:  mu: -0.100971436  nElectrons: 144.000000
	SubspaceRotationAdjust: set factor to 0.135
ElecMinimize: Iter:  67  F: -681.566914782282197  |grad|_K:  2.353e-07  alpha:  1.361e-01  linmin: -7.779e-06  t[s]:    384.87
	FillingsUpdate:  mu: -0.100944565  nElectrons: 144.000000
	SubspaceRotationAdjust: set factor to 0.16
ElecMinimize: Iter:  68  F: -681.566915819828068  |grad|_K:  2.510e-07  alpha:  3.960e-01  linmin:  6.422e-05  t[s]:    390.27
	FillingsUpdate:  mu: -0.101865654  nElectrons: 144.000000
	SubspaceRotationAdjust: set factor to 0.12
	SubspaceRotationAdjust: resetting CG because factor has changed by 0.124449
ElecMinimize: 	State modified externally: resetting search direction.
ElecMinimize: Iter:  69  F: -681.566916623510679  |grad|_K:  2.574e-07  alpha:  2.697e-01
	FillingsUpdate:  mu: -0.101145862  nElectrons: 144.000000
	SubspaceRotationAdjust: set factor to 0.163
ElecMinimize: Iter:  70  F: -681.566917187503122  |grad|_K:  1.433e-07  alpha:  1.792e-01  linmin: -1.730e-05  t[s]:    404.25
	FillingsUpdate:  mu: -0.101408339  nElectrons: 144.000000

Dumping 'X.fillings' ... done
Dumping 'X.wfns' ... done
Dumping 'X.force' ... done
Dumping 'X.eigenvals' ... done
	SubspaceRotationAdjust: set factor to 0.132
ElecMinimize: Iter:  71  F: -681.566917711045676  |grad|_K:  1.706e-07  alpha:  5.299e-01  linmin: -8.339e-04  t[s]:    410.09
	FillingsUpdate:  mu: -0.100828157  nElectrons: 144.000000
	SubspaceRotationAdjust: set factor to 0.106
ElecMinimize: Iter:  72  F: -681.566918306900448  |grad|_K:  1.901e-07  alpha:  4.261e-01  linmin: -1.356e-05  t[s]:    415.49
	FillingsUpdate:  mu: -0.101436595  nElectrons: 144.000000
	SubspaceRotationAdjust: set factor to 0.0765
ElecMinimize: Iter:  73  F: -681.566919042553764  |grad|_K:  1.586e-07  alpha:  4.290e-01  linmin:  2.259e-05  t[s]:    420.89
	FillingsUpdate:  mu: -0.101160024  nElectrons: 144.000000
	SubspaceRotationAdjust: set factor to 0.0644
ElecMinimize: Iter:  74  F: -681.566919458352459  |grad|_K:  1.259e-07  alpha:  3.480e-01  linmin:  5.720e-06  t[s]:    426.27
	FillingsUpdate:  mu: -0.101222513  nElectrons: 144.000000
	SubspaceRotationAdjust: set factor to 0.0724
ElecMinimize: Iter:  75  F: -681.566919758667382  |grad|_K:  1.011e-07  alpha:  3.985e-01  linmin: -1.227e-04  t[s]:    431.66
	FillingsUpdate:  mu: -0.101626342  nElectrons: 144.000000
	SubspaceRotationAdjust: set factor to 0.0659
ElecMinimize: Iter:  76  F: -681.566920070152605  |grad|_K:  1.283e-07  alpha:  6.404e-01  linmin:  2.538e-05  t[s]:    437.05
	FillingsUpdate:  mu: -0.101342347  nElectrons: 144.000000
	SubspaceRotationAdjust: set factor to 0.0626
ElecMinimize: Iter:  77  F: -681.566920710059321  |grad|_K:  1.580e-07  alpha:  8.198e-01  linmin:  3.729e-05  t[s]:    442.43
	FillingsUpdate:  mu: -0.101291647  nElectrons: 144.000000
	SubspaceRotationAdjust: set factor to 0.0649
ElecMinimize: Iter:  78  F: -681.566921390134212  |grad|_K:  1.765e-07  alpha:  5.731e-01  linmin:  5.808e-06  t[s]:    447.81
	FillingsUpdate:  mu: -0.101512751  nElectrons: 144.000000

Dumping 'X.fillings' ... done
Dumping 'X.wfns' ... done
Dumping 'X.force' ... done
Dumping 'X.eigenvals' ... done
	SubspaceRotationAdjust: set factor to 0.0638
ElecMinimize: Iter:  79  F: -681.566922052236578  |grad|_K:  1.497e-07  alpha:  4.469e-01  linmin:  3.538e-05  t[s]:    453.63
	FillingsUpdate:  mu: -0.101431580  nElectrons: 144.000000
	SubspaceRotationAdjust: set factor to 0.0665
ElecMinimize: Iter:  80  F: -681.566922558999295  |grad|_K:  1.174e-07  alpha:  4.780e-01  linmin:  7.707e-05  t[s]:    459.08
	FillingsUpdate:  mu: -0.101351884  nElectrons: 144.000000
	SubspaceRotationAdjust: set factor to 0.0686
ElecMinimize: Iter:  81  F: -681.566922827485996  |grad|_K:  8.932e-08  alpha:  4.126e-01  linmin: -1.033e-06  t[s]:    464.51
	FillingsUpdate:  mu: -0.101348169  nElectrons: 144.000000
	SubspaceRotationAdjust: set factor to 0.0715
ElecMinimize: Iter:  82  F: -681.566922963708180  |grad|_K:  6.600e-08  alpha:  3.600e-01  linmin:  1.108e-04  t[s]:    469.95
	FillingsUpdate:  mu: -0.101330753  nElectrons: 144.000000
	SubspaceRotationAdjust: set factor to 0.0729
ElecMinimize: Iter:  83  F: -681.566923063466106  |grad|_K:  6.253e-08  alpha:  4.839e-01  linmin: -1.318e-04  t[s]:    475.38
	FillingsUpdate:  mu: -0.101334407  nElectrons: 144.000000
	SubspaceRotationAdjust: set factor to 0.0743
ElecMinimize: Iter:  84  F: -681.566923176260502  |grad|_K:  7.058e-08  alpha:  6.051e-01  linmin:  1.105e-04  t[s]:    480.81
	FillingsUpdate:  mu: -0.101309027  nElectrons: 144.000000
	SubspaceRotationAdjust: set factor to 0.0785
ElecMinimize: Iter:  85  F: -681.566923290473710  |grad|_K:  6.711e-08  alpha:  4.884e-01  linmin: -5.027e-06  t[s]:    486.24
	FillingsUpdate:  mu: -0.101230255  nElectrons: 144.000000
	SubspaceRotationAdjust: set factor to 0.0829
ElecMinimize: Iter:  86  F: -681.566923401504141  |grad|_K:  6.689e-08  alpha:  5.189e-01  linmin:  1.834e-05  t[s]:    491.69
	FillingsUpdate:  mu: -0.101254815  nElectrons: 144.000000

Dumping 'X.fillings' ... done
Dumping 'X.wfns' ... done
Dumping 'X.force' ... done
Dumping 'X.eigenvals' ... done
	SubspaceRotationAdjust: set factor to 0.0853
ElecMinimize: Iter:  87  F: -681.566923533175100  |grad|_K:  8.106e-08  alpha:  6.188e-01  linmin: -2.423e-05  t[s]:    497.50
	FillingsUpdate:  mu: -0.101262251  nElectrons: 144.000000
	SubspaceRotationAdjust: set factor to 0.0875
ElecMinimize: Iter:  88  F: -681.566923725020160  |grad|_K:  9.771e-08  alpha:  6.143e-01  linmin:  2.918e-05  t[s]:    502.89
	FillingsUpdate:  mu: -0.101186664  nElectrons: 144.000000
	SubspaceRotationAdjust: set factor to 0.0884
ElecMinimize: Iter:  89  F: -681.566924015534596  |grad|_K:  1.160e-07  alpha:  6.440e-01  linmin: -1.597e-06  t[s]:    508.29
	FillingsUpdate:  mu: -0.101454348  nElectrons: 144.000000
	SubspaceRotationAdjust: set factor to 0.0891
ElecMinimize: Iter:  90  F: -681.566924450910278  |grad|_K:  1.506e-07  alpha:  6.810e-01  linmin:  1.883e-05  t[s]:    513.74
	FillingsUpdate:  mu: -0.101552547  nElectrons: 144.000000
	SubspaceRotationAdjust: set factor to 0.0947
ElecMinimize: Iter:  91  F: -681.566925134143958  |grad|_K:  1.881e-07  alpha:  6.321e-01  linmin:  1.394e-04  t[s]:    519.14
	FillingsUpdate:  mu: -0.101537927  nElectrons: 144.000000
	SubspaceRotationAdjust: set factor to 0.108
ElecMinimize: Iter:  92  F: -681.566925616278809  |grad|_K:  1.605e-07  alpha:  2.268e-01  linmin: -8.453e-04  t[s]:    524.53
	FillingsUpdate:  mu: -0.101515875  nElectrons: 144.000000
	SubspaceRotationAdjust: set factor to 0.127
ElecMinimize: Iter:  93  F: -681.566925969805880  |grad|_K:  1.512e-07  alpha:  2.305e-01  linmin:  2.885e-04  t[s]:    529.95
	FillingsUpdate:  mu: -0.101485709  nElectrons: 144.000000
	SubspaceRotationAdjust: set factor to 0.147
ElecMinimize: Iter:  94  F: -681.566926148603670  |grad|_K:  1.569e-07  alpha:  1.713e-01  linmin:  7.785e-05  t[s]:    535.39
	FillingsUpdate:  mu: -0.101432778  nElectrons: 144.000000

Dumping 'X.fillings' ... done
Dumping 'X.wfns' ... done
Dumping 'X.force' ... done
Dumping 'X.eigenvals' ... done
	SubspaceRotationAdjust: set factor to 0.176
ElecMinimize: Iter:  95  F: -681.566926286597436  |grad|_K:  1.428e-07  alpha:  1.167e-01  linmin:  1.371e-05  t[s]:    541.25
	FillingsUpdate:  mu: -0.101364239  nElectrons: 144.000000
	SubspaceRotationAdjust: set factor to 0.216
ElecMinimize: Iter:  96  F: -681.566926385993270  |grad|_K:  1.365e-07  alpha:  1.024e-01  linmin:  7.386e-05  t[s]:    546.62
	FillingsUpdate:  mu: -0.101296116  nElectrons: 144.000000
	SubspaceRotationAdjust: set factor to 0.271
ElecMinimize: Iter:  97  F: -681.566926471004308  |grad|_K:  1.432e-07  alpha:  9.740e-02  linmin:  7.471e-05  t[s]:    552.04
ElecMinimize: Converged (|Delta F|<1.000000e-07 for 2 iters).
Setting wave functions to eigenvectors of Hamiltonian

# Ionic positions in lattice coordinates:
ion Na   0.000000000000000   0.000000000000000   0.216220000000000 1
ion Na   0.500000000000000   0.500000000000000   0.254060000000000 1
ion Na   0.000000000000000   0.000000000000000   0.291890000000000 1
ion Na   0.500000000000000   0.500000000000000   0.329730000000000 1
ion Na   0.000000000000000   0.000000000000000   0.367570000000000 1
ion Na   0.500000000000000   0.500000000000000   0.405410000000000 1
ion Na   0.000000000000000   0.000000000000000   0.443240000000000 1
ion Na   0.500000000000000   0.500000000000000   0.481080000000000 1
ion Na   0.000000000000000   0.000000000000000   0.518920000000000 1
ion Na   0.500000000000000   0.500000000000000   0.556760000000000 1
ion Na   0.000000000000000   0.000000000000000   0.594590000000000 1
ion Na   0.500000000000000   0.500000000000000   0.632430000000000 1
ion Na   0.000000000000000   0.000000000000000   0.670270000000000 1
ion Na   0.500000000000000   0.500000000000000   0.708110000000000 1
ion Na   0.000000000000000   0.000000000000000   0.745940000000000 1
ion Na   0.500000000000000   0.500000000000000   0.783780000000000 1

# Forces in Lattice coordinates:
force Na  -0.000000000000000  -0.000000000000000  -0.040980510797059 1
force Na   0.000000000000000   0.000000000000000   0.026254545459426 1
force Na   0.000000000000000   0.000000000000000  -0.005519285751776 1
force Na   0.000000000000000   0.000000000000000  -0.006461469119639 1
force Na   0.000000000000000   0.000000000000000   0.011632276938972 1
force Na  -0.000000000000000   0.000000000000000   0.008091838613651 1
force Na  -0.000000000000000   0.000000000000000   0.012365127005960 1
force Na  -0.000000000000000   0.000000000000000   0.010857445625474 1
force Na  -0.000000000000000   0.000000000000000  -0.010857445625361 1
force Na  -0.000000000000000   0.000000000000000  -0.012365127006415 1
force Na  -0.000000000000000   0.000000000000000  -0.008091838613651 1
force Na   0.000000000000000   0.000000000000000  -0.011632276938063 1
force Na   0.000000000000000  -0.000000000000000   0.006461469119639 1
force Na   0.000000000000000   0.000000000000000   0.005519285749957 1
force Na   0.000000000000000  -0.000000000000000  -0.026254545457607 1
force Na  -0.000000000000000   0.000000000000000   0.040980510797059 1

# Energy components:
   Eewald =   -22140.8827821708000556
       EH =   -21595.3515863216853177
     Eloc =    43014.7720208499158616
      Enl =     -206.8318193670889968
   Epulay =       -0.0000095870677818
      Exc =     -100.1849100605660681
       KE =      346.9745760460230599
-------------------------------------
     Etot =     -681.5045106112693247
       TS =        0.0624158597349535
-------------------------------------
        F =     -681.5669264710043080

IonicMinimize: Iter:   0  F: -681.566926471004308  |grad|_K:  1.050e-04  t[s]:    552.88
IonicMinimize: None of the convergence criteria satisfied after 0 iterations.

#--- Lowdin population analysis ---
# oxidation-state Na +0.075 +0.050 +0.048 +0.056 +0.054 +0.054 +0.055 +0.054 +0.054 +0.055 +0.054 +0.054 +0.056 +0.048 +0.050 +0.075


Dumping 'X.fillings' ... done
Dumping 'X.wfns' ... done
Dumping 'X.ionpos' ... done
Dumping 'X.lattice' ... done
Dumping 'X.n' ... done
Dumping 'X.eigenvals' ... done
Dumping 'X.eigStats' ... 
	eMin: -2.063281 at state 0 ( [ +0.000000 +0.000000 +0.000000 ] spin 0 )
	HOMO: -0.101846 at state 12 ( [ +0.181818 +0.272727 +0.000000 ] spin 0 )
	mu  : -0.101296
	LUMO: -0.101206 at state 10 ( [ +0.090909 +0.454545 +0.000000 ] spin 0 )
	eMax: +0.004170 at state 11 ( [ +0.181818 +0.181818 +0.000000 ] spin 0 )
	HOMO-LUMO gap: +0.000640
	Optical gap  : +0.002830 at state 5 ( [ +0.000000 +0.454545 +0.000000 ] spin 0 )
Dumping 'X.dos' ... done.
End date and time: Thu Nov  9 01:04:02 2023  (Duration: 0-0:09:14.07)
Done!

*************** JDFTx 1.7.0  ***************

Start date and time: Thu Nov  9 01:04:05 2023
Executable jdftx with command-line: -m -i X.in -o X.out
Running on hosts (process indices):  ac0376 (0-20)
Divided in process groups (process indices):  0 (0)  1 (1)  2 (2)  3 (3)  4 (4)  5 (5)  6 (6)  7 (7)  8 (8)  9 (9)  10 (10)  11 (11)  12 (12)  13 (13)  14 (14)  15 (15)  16 (16)  17 (17)  18 (18)  19 (19)  20 (20)
Resource initialization completed at t[s]:      0.02
Run totals: 21 processes, 21 threads, 0 GPUs


Input parsed successfully to the following command list (including defaults):

basis kpoint-dependent
cache-projectors no
coords-type Lattice
core-overlap-check vector
coulomb-interaction Slab 001
coulomb-truncation-embed 0 0 0.5
davidson-band-ratio 1.1
density-of-states Etol 1.000000e-06 Esigma 0.000000e+00 \
		Complete \
	Total \
		Occupied \
	Total
dump End State IonicPositions Lattice ElecDensity CoreDensity EigStats DOS
dump Electronic State Forces
dump Ionic State IonicPositions Forces Lattice DOS
dump-interval Electronic 8
dump-interval Ionic 4
dump-name X.$var
elec-cutoff 30
elec-eigen-algo Davidson
elec-ex-corr gga-PBE
elec-smearing Fermi 0.0095
electronic-minimize  \
	dirUpdateScheme      FletcherReeves \
	linminMethod         DirUpdateRecommended \
	nIterations          2000 \
	history              15 \
	knormThreshold       0 \
	energyDiffThreshold  1e-07 \
	nEnergyDiff          2 \
	alphaTstart          1 \
	alphaTmin            1e-10 \
	updateTestStepSize   yes \
	alphaTreduceFactor   0.1 \
	alphaTincreaseFactor 3 \
	nAlphaAdjustMax      3 \
	wolfeEnergy          0.0001 \
	wolfeGradient        0.9 \
	fdTest               no
exchange-regularization WignerSeitzTruncated
fluid None
fluid-ex-corr (null) lda-PZ
fluid-gummel-loop 10 1.000000e-05
fluid-minimize  \
	dirUpdateScheme      PolakRibiere \
	linminMethod         DirUpdateRecommended \
	nIterations          100 \
	history              15 \
	knormThreshold       0 \
	energyDiffThreshold  0 \
	nEnergyDiff          2 \
	alphaTstart          1 \
	alphaTmin            1e-10 \
	updateTestStepSize   yes \
	alphaTreduceFactor   0.1 \
	alphaTincreaseFactor 3 \
	nAlphaAdjustMax      3 \
	wolfeEnergy          0.0001 \
	wolfeGradient        0.9 \
	fdTest               no
fluid-solvent H2O 55.338 ScalarEOS \
	epsBulk 78.4 \
	pMol 0.92466 \
	epsInf 1.77 \
	Pvap 1.06736e-10 \
	sigmaBulk 4.62e-05 \
	Rvdw 2.61727 \
	Res 1.42 \
	tauNuc 343133 \
	poleEl 15 7 1
forces-output-coords Positions
ion Na   0.000000000000000   0.000000000000000   0.216220000000000 1
ion Na   0.500000000000000   0.500000000000000   0.254060000000000 1
ion Na   0.000000000000000   0.000000000000000   0.291890000000000 1
ion Na   0.500000000000000   0.500000000000000   0.329730000000000 1
ion Na   0.000000000000000   0.000000000000000   0.367570000000000 1
ion Na   0.500000000000000   0.500000000000000   0.405410000000000 1
ion Na   0.000000000000000   0.000000000000000   0.443240000000000 1
ion Na   0.500000000000000   0.500000000000000   0.481080000000000 1
ion Na   0.000000000000000   0.000000000000000   0.518920000000000 1
ion Na   0.500000000000000   0.500000000000000   0.556760000000000 1
ion Na   0.000000000000000   0.000000000000000   0.594590000000000 1
ion Na   0.500000000000000   0.500000000000000   0.632430000000000 1
ion Na   0.000000000000000   0.000000000000000   0.670270000000000 1
ion Na   0.500000000000000   0.500000000000000   0.708110000000000 1
ion Na   0.000000000000000   0.000000000000000   0.745940000000000 1
ion Na   0.500000000000000   0.500000000000000   0.783780000000000 1
ion-species SG15/$ID_ONCV_PBE.upf
ion-width 0
ionic-minimize  \
	dirUpdateScheme      L-BFGS \
	linminMethod         DirUpdateRecommended \
	nIterations          0 \
	history              15 \
	knormThreshold       0.0001 \
	energyDiffThreshold  1e-06 \
	nEnergyDiff          2 \
	alphaTstart          1 \
	alphaTmin            1e-10 \
	updateTestStepSize   yes \
	alphaTreduceFactor   0.1 \
	alphaTincreaseFactor 3 \
	nAlphaAdjustMax      3 \
	wolfeEnergy          0.0001 \
	wolfeGradient        0.9 \
	fdTest               no
kpoint   0.000000000000   0.000000000000   0.000000000000  1.00000000000000
kpoint-folding 11 11 1 
latt-move-scale 1 1 1
latt-scale 1 1 1 
lattice  \
	   7.936714821600003   -0.000000000000000   -0.000000000000000  \
	   0.000000000000000    7.936714821600003   -0.000000000000000  \
	   0.000000000000000    0.000000000000000  104.878881161999999 
lattice-minimize  \
	dirUpdateScheme      L-BFGS \
	linminMethod         DirUpdateRecommended \
	nIterations          0 \
	history              15 \
	knormThreshold       0 \
	energyDiffThreshold  1e-06 \
	nEnergyDiff          2 \
	alphaTstart          1 \
	alphaTmin            1e-10 \
	updateTestStepSize   yes \
	alphaTreduceFactor   0.1 \
	alphaTincreaseFactor 3 \
	nAlphaAdjustMax      3 \
	wolfeEnergy          0.0001 \
	wolfeGradient        0.9 \
	fdTest               no
lcao-params -1 1e-06 0.0095
pcm-variant GLSSA13
spintype no-spin
subspace-rotation-factor 1 yes
symmetries automatic
symmetry-threshold 0.0001
wavefunction read X.wfns 80 20.000000



---------- Setting up symmetries ----------

Found 16 point-group symmetries of the bravais lattice
Found 16 space-group symmetries with basis
Applied RMS atom displacement 0 bohrs to make symmetries exact.

---------- Initializing the Grid ----------
R = 
[      7.93671            0            0  ]
[            0      7.93671            0  ]
[            0            0      104.879  ]
unit cell volume = 6606.47
G =
[   0.791661          0          0  ]
[         -0   0.791661          0  ]
[          0         -0   0.059909  ]
Minimum fftbox size, Smin = [  40  40  520  ]
Chosen fftbox size, S = [  40  40  540  ]

---------- Exchange Correlation functional ----------
Initalized PBE GGA exchange.
Initalized PBE GGA correlation.

---------- Setting up pseudopotentials ----------
Width of ionic core gaussian charges (only for fluid interactions / plotting) set to 0

Reading pseudopotential file '/net/software/testing/software/jdftx/1.7.0-foss-2021b-mkl/share/jdftx/pseudopotentials/SG15/Na_ONCV_PBE.upf':
  'Na' pseudopotential, 'PBE' functional
  Generated using ONCVPSP code by D. R. Hamann
  Author: Martin Schlipf and Francois Gygi  Date: 150915.
  9 valence electrons, 3 orbitals, 4 projectors, 1992 radial grid points, with lMax = 1
  Transforming local potential to a uniform radial grid of dG=0.02 with 1387 points.
  Transforming nonlocal projectors to a uniform radial grid of dG=0.02 with 528 points.
    2S    l: 0   occupation:  2.0   eigenvalue: -2.085640
    2P    l: 1   occupation:  6.0   eigenvalue: -1.053708
    3S    l: 0   occupation:  1.0   eigenvalue: -0.100838
  Transforming atomic orbitals to a uniform radial grid of dG=0.02 with 528 points.
  Core radius for overlap checks: 2.01 bohrs.
  Reading pulay file /net/software/testing/software/jdftx/1.7.0-foss-2021b-mkl/share/jdftx/pseudopotentials/SG15/Na_ONCV_PBE.pulay ... using dE_dnG = -3.261361e-04 computed for Ecut = 30.

Initialized 1 species with 16 total atoms.

Folded 1 k-points by 11x11x1 to 121 k-points.

---------- Setting up k-points, bands, fillings ----------
Reduced to 21 k-points under symmetry. 
Computing the number of bands and number of electrons
Calculating initial fillings.
nElectrons: 144.000000   nBands: 80   nStates: 21

----- Setting up reduced wavefunction bases (one per k-point) -----
average nbasis = 51850.107 , ideal nbasis = 51849.608

----- Initializing Supercell corresponding to k-point mesh -----
Lattice vector linear combinations in supercell:
[  11   0   0  ]
[   0  11   0  ]
[   0   0   1  ]
Supercell lattice vectors:
[  87.3039  0  0  ]
[  0  87.3039  0  ]
[  0  0  104.879  ]

---------- Setting up coulomb interaction ----------
Setting up double-sized grid for truncated Coulomb potentials:
R = 
[      7.93671            0            0  ]
[            0      7.93671            0  ]
[            0            0      209.758  ]
unit cell volume = 13212.9
G =
[   0.791661          0          0  ]
[         -0   0.791661          0  ]
[          0         -0  0.0299545  ]
Chosen fftbox size, S = [  40  40  1080  ]
Integer grid location selected as the embedding center:
   Grid: [  0  0  270  ]
   Lattice: [  0  0  0.5  ]
   Cartesian: [  0  0  52.4394  ]
Constructing Wigner-Seitz cell: 6 faces (6 quadrilaterals, 0 hexagons)
Range-separation parameter for embedded mesh potentials due to point charges: 0.561954 bohrs.
Initialized slab truncation along lattice direction 001

---------- Setting up 2D ewald sum ----------
Optimum gaussian width for ewald sums = 4.734710 bohr.
Real space sums over 225 unit cells with max indices [  7  7  0  ]
Reciprocal space sums over 81 terms with max indices [  4  4  0  ]

---------- Allocating electronic variables ----------
Initializing wave functions:  reading from 'X.wfns'


---- Citations for features of the code used in this run ----

   Software package:
      R. Sundararaman, K. Letchworth-Weaver, K.A. Schwarz, D. Gunceler, Y. Ozhabes and T.A. Arias, 'JDFTx: software for joint density-functional theory', SoftwareX 6, 278 (2017)

   gga-PBE exchange-correlation functional:
      J.P. Perdew, K. Burke and M. Ernzerhof, Phys. Rev. Lett. 77, 3865 (1996)

   Pseudopotentials:
      M Schlipf and F Gygi, Comput. Phys. Commun. 196, 36 (2015)

   Truncated Coulomb potentials:
      R. Sundararaman and T.A. Arias, Phys. Rev. B 87, 165122 (2013)

   Total energy minimization with Auxiliary Hamiltonian:
      C. Freysoldt, S. Boeck, and J. Neugebauer, Phys. Rev. B 79, 241103(R) (2009)

   Linear-tetrahedron sampling for density of states:
      G. Lehmann and M. Taut, Phys. status solidi (b) 54, 469 (1972)

This list may not be complete. Please suggest additional citations or
report any other bugs at https://github.com/shankar1729/jdftx/issues

Initialization completed successfully at t[s]:      1.75


Setting the auxilliary hamiltonian equal to the subspace hamiltonian.

-------- Electronic minimization -----------
	FillingsUpdate:  mu: -0.049506166  nElectrons: 144.000000
ElecMinimize: Iter:   0  F: -681.535453822177033  |grad|_K:  5.847e-05  alpha:  1.000e+00
	FillingsUpdate:  mu: -0.107800488  nElectrons: 144.000000
	SubspaceRotationAdjust: set factor to 1.26
ElecMinimize: Iter:   1  F: -681.545538097412305  |grad|_K:  3.915e-05  alpha:  2.191e-02  linmin: -1.631e-03  t[s]:     25.56
ElecMinimize: 	Predicted alpha/alphaT>3.000000, increasing alphaT to 6.573152e-02.
	FillingsUpdate:  mu: -0.208807646  nElectrons: 144.000000
	SubspaceRotationAdjust: set factor to 0.688
ElecMinimize: Iter:   2  F: -681.558797513860441  |grad|_K:  6.775e-05  alpha:  6.414e-02  linmin:  4.246e-05  t[s]:     39.38
	FillingsUpdate:  mu: -0.194971486  nElectrons: 144.000000
	SubspaceRotationAdjust: set factor to 0.35
ElecMinimize: Iter:   3  F: -681.568849709028200  |grad|_K:  4.950e-05  alpha:  2.569e-02  linmin: -1.851e-05  t[s]:     50.09
	FillingsUpdate:  mu: -0.124283423  nElectrons: 144.000000
	SubspaceRotationAdjust: set factor to 0.384
ElecMinimize: Iter:   4  F: -681.573601050895491  |grad|_K:  1.991e-05  alpha:  2.203e-02  linmin:  9.665e-06  t[s]:     60.77
	FillingsUpdate:  mu: -0.075181889  nElectrons: 144.000000
	SubspaceRotationAdjust: set factor to 0.359
ElecMinimize: Iter:   5  F: -681.575231208939044  |grad|_K:  1.757e-05  alpha:  4.833e-02  linmin:  2.104e-05  t[s]:     71.47
	FillingsUpdate:  mu: -0.033552839  nElectrons: 144.000000
	SubspaceRotationAdjust: set factor to 0.202
[...]
	FillingsUpdate:  mu: -0.097627585  nElectrons: 144.000000
	SubspaceRotationAdjust: set factor to 0.0494
ElecMinimize: Iter:   4  F: -681.579723929293550  |grad|_K:  5.419e-08  alpha:  5.035e-01  linmin: -4.128e-06  t[s]:   4016.25
	FillingsUpdate:  mu: -0.097892686  nElectrons: 144.000000
	SubspaceRotationAdjust: set factor to 0.0471
ElecMinimize: Iter:   5  F: -681.579724275495323  |grad|_K:  4.315e-08  alpha:  6.282e-01  linmin: -5.525e-05  t[s]:   4043.80
	FillingsUpdate:  mu: -0.097837320  nElectrons: 144.000000
	SubspaceRotationAdjust: set factor to 0.0514
ElecMinimize: Iter:   6  F: -681.579724493071240  |grad|_K:  3.722e-08  alpha:  6.229e-01  linmin: -1.160e-04  t[s]:   4070.69
	FillingsUpdate:  mu: -0.097821095  nElectrons: 144.000000

Dumping 'X.fillings' ... done
Dumping 'X.wfns' ... done
Dumping 'X.ionpos' ... done
Dumping 'X.force' ... done
Dumping 'X.eigenvals' ... done
	SubspaceRotationAdjust: set factor to 0.0543
ElecMinimize: Iter:   7  F: -681.579724630324336  |grad|_K:  2.808e-08  alpha:  5.275e-01  linmin:  5.196e-07  t[s]:   4100.43
	FillingsUpdate:  mu: -0.097857100  nElectrons: 144.000000
	SubspaceRotationAdjust: set factor to 0.0584
ElecMinimize: Iter:   8  F: -681.579724713014002  |grad|_K:  2.112e-08  alpha:  5.552e-01  linmin: -6.597e-04  t[s]:   4127.46
	FillingsUpdate:  mu: -0.097882156  nElectrons: 144.000000
	SubspaceRotationAdjust: set factor to 0.0627
ElecMinimize: Iter:   9  F: -681.579724762415253  |grad|_K:  1.837e-08  alpha:  5.843e-01  linmin: -5.687e-04  t[s]:   4154.33
	FillingsUpdate:  mu: -0.097856729  nElectrons: 144.000000
	SubspaceRotationAdjust: set factor to 0.0681
ElecMinimize: Iter:  10  F: -681.579724801782845  |grad|_K:  1.692e-08  alpha:  6.162e-01  linmin:  5.780e-04  t[s]:   4181.18
	FillingsUpdate:  mu: -0.097818170  nElectrons: 144.000000
	SubspaceRotationAdjust: set factor to 0.0736
ElecMinimize: Iter:  11  F: -681.579724830476493  |grad|_K:  1.433e-08  alpha:  5.335e-01  linmin: -7.349e-04  t[s]:   4206.81
	FillingsUpdate:  mu: -0.097833433  nElectrons: 144.000000
	SubspaceRotationAdjust: set factor to 0.0803
ElecMinimize: Iter:  12  F: -681.579724849921945  |grad|_K:  1.183e-08  alpha:  4.947e-01  linmin: -8.581e-04  t[s]:   4233.22
	FillingsUpdate:  mu: -0.097826178  nElectrons: 144.000000
	SubspaceRotationAdjust: set factor to 0.0915
ElecMinimize: Iter:  13  F: -681.579724864539230  |grad|_K:  1.092e-08  alpha:  5.524e-01  linmin:  1.879e-04  t[s]:   4260.43
	FillingsUpdate:  mu: -0.097823348  nElectrons: 144.000000
	SubspaceRotationAdjust: set factor to 0.101
ElecMinimize: Iter:  14  F: -681.579724877057856  |grad|_K:  1.025e-08  alpha:  5.613e-01  linmin:  1.214e-04  t[s]:   4287.39
	FillingsUpdate:  mu: -0.097863605  nElectrons: 144.000000

Dumping 'X.fillings' ... done
Dumping 'X.wfns' ... done
Dumping 'X.ionpos' ... done
Dumping 'X.force' ... done
Dumping 'X.eigenvals' ... done
	SubspaceRotationAdjust: set factor to 0.103
ElecMinimize: Iter:  15  F: -681.579724886266263  |grad|_K:  8.656e-09  alpha:  4.800e-01  linmin: -4.314e-05  t[s]:   4316.35
	FillingsUpdate:  mu: -0.097841476  nElectrons: 144.000000
	SubspaceRotationAdjust: set factor to 0.0976
ElecMinimize: Iter:  16  F: -681.579724892750846  |grad|_K:  7.316e-09  alpha:  4.769e-01  linmin:  7.290e-04  t[s]:   4343.30
ElecMinimize: Converged (|Delta F|<1.000000e-08 for 2 iters).
Setting wave functions to eigenvectors of Hamiltonian
Converging empty states (this may take a while): |deigs|: 1.498e-08

# Ionic positions in lattice coordinates:
ion Na   0.000000000000000   0.000000000000000   0.215870175253561 1
ion Na   0.500000000000000   0.500000000000000   0.254181170737219 1
ion Na   0.000000000000000  -0.000000000000000   0.291855835442287 1
ion Na   0.500000000000000   0.500000000000000   0.329322131128052 1
ion Na   0.000000000000000   0.000000000000000   0.367508726246593 1
ion Na   0.500000000000000   0.500000000000000   0.405506671943754 1
ion Na   0.000000000000000   0.000000000000000   0.443428498647087 1
ion Na   0.500000000000000   0.500000000000000   0.481231262545622 1
ion Na   0.000000000000000   0.000000000000000   0.518768737454378 1
ion Na   0.500000000000000   0.500000000000000   0.556571501352913 1
ion Na   0.000000000000000   0.000000000000000   0.594493328056246 1
ion Na   0.500000000000000   0.500000000000000   0.632491273753407 1
ion Na   0.000000000000000   0.000000000000000   0.670677868871948 1
ion Na   0.500000000000000   0.500000000000000   0.708144164557713 1
ion Na   0.000000000000000   0.000000000000000   0.745818829262781 1
ion Na   0.500000000000000   0.500000000000000   0.784129824746439 1

# Forces in Lattice coordinates:
force Na  -0.000000000000000  -0.000000000000000   0.000488232710360 1
force Na  -0.000000000000000   0.000000000000000  -0.005766527679066 1
force Na   0.000000000000000  -0.000000000000000  -0.002457030120267 1
force Na   0.000000000000000   0.000000000000000   0.004308594867606 1
force Na  -0.000000000000000  -0.000000000000000  -0.000337476724641 1
force Na  -0.000000000000000  -0.000000000000000   0.000705929042366 1
force Na   0.000000000000000   0.000000000000000  -0.000966644468228 1
force Na   0.000000000000000   0.000000000000000  -0.001395447629391 1
force Na   0.000000000000000   0.000000000000000   0.001395447629164 1
force Na   0.000000000000000   0.000000000000000   0.000966644467319 1
force Na   0.000000000000000  -0.000000000000000  -0.000705929042366 1
force Na  -0.000000000000000   0.000000000000000   0.000337476723731 1
force Na   0.000000000000000   0.000000000000000  -0.004308594867606 1
force Na   0.000000000000000   0.000000000000000   0.002457030122086 1
force Na   0.000000000000000  -0.000000000000000   0.005766527679066 1
force Na   0.000000000000000  -0.000000000000000  -0.000488232710360 1

# Energy components:
   Eewald =   -22152.5899137945707480
       EH =   -21606.4387680019317486
     Eloc =    43037.4828744413098320
      Enl =     -206.9054174088327045
   Epulay =       -0.0000000382418518
      Exc =     -100.2046254752273455
       KE =      347.0767584770969734
-------------------------------------
     Etot =     -681.5790918003976913
       TS =        0.0006330923531414
-------------------------------------
        F =     -681.5797248927508463

IonicMinimize: Iter:   5  F: -681.579724892750846  |grad|_K:  1.527e-05  alpha:  3.839e-01  linmin:  4.738e-02  t[s]:   4374.40

#--- Lowdin population analysis ---
# oxidation-state Na +0.050 +0.054 +0.029 +0.047 +0.043 +0.038 +0.046 +0.041 +0.041 +0.046 +0.038 +0.043 +0.047 +0.029 +0.054 +0.050


-------- Electronic minimization -----------
	FillingsUpdate:  mu: -0.098470538  nElectrons: 144.000000
ElecMinimize: Iter:   0  F: -681.579717637518684  |grad|_K:  3.845e-07  alpha:  1.000e+00
	FillingsUpdate:  mu: -0.096910649  nElectrons: 144.000000
	SubspaceRotationAdjust: set factor to 0.0519
ElecMinimize: Iter:   1  F: -681.579724312942631  |grad|_K:  1.462e-07  alpha:  2.412e-01  linmin:  3.065e-04  t[s]:   4424.06
	FillingsUpdate:  mu: -0.097812024  nElectrons: 144.000000
	SubspaceRotationAdjust: set factor to 0.0328
ElecMinimize: Iter:   2  F: -681.579725170356028  |grad|_K:  5.025e-08  alpha:  2.142e-01  linmin: -3.601e-05  t[s]:   4450.98
	FillingsUpdate:  mu: -0.097898076  nElectrons: 144.000000
	SubspaceRotationAdjust: set factor to 0.0441
ElecMinimize: Iter:   3  F: -681.579725382042511  |grad|_K:  2.979e-08  alpha:  4.465e-01  linmin: -3.323e-04  t[s]:   4477.96
	FillingsUpdate:  mu: -0.097830275  nElectrons: 144.000000
	SubspaceRotationAdjust: set factor to 0.0435
ElecMinimize: Iter:   4  F: -681.579725471771326  |grad|_K:  1.974e-08  alpha:  5.416e-01  linmin:  1.984e-03  t[s]:   4504.89
	FillingsUpdate:  mu: -0.097841706  nElectrons: 144.000000
	SubspaceRotationAdjust: set factor to 0.0472
ElecMinimize: Iter:   5  F: -681.579725514245752  |grad|_K:  1.496e-08  alpha:  5.913e-01  linmin: -1.965e-03  t[s]:   4531.82
	FillingsUpdate:  mu: -0.097908884  nElectrons: 144.000000
	SubspaceRotationAdjust: set factor to 0.0489
ElecMinimize: Iter:   6  F: -681.579725541080393  |grad|_K:  1.291e-08  alpha:  6.507e-01  linmin:  5.289e-03  t[s]:   4558.76
	FillingsUpdate:  mu: -0.097904974  nElectrons: 144.000000

Dumping 'X.fillings' ... done
Dumping 'X.wfns' ... done
Dumping 'X.ionpos' ... done
Dumping 'X.force' ... done
Dumping 'X.eigenvals' ... done
	SubspaceRotationAdjust: set factor to 0.0554
ElecMinimize: Iter:   7  F: -681.579725558412292  |grad|_K:  1.085e-08  alpha:  5.905e-01  linmin:  6.494e-04  t[s]:   4586.46
	FillingsUpdate:  mu: -0.097857242  nElectrons: 144.000000
	SubspaceRotationAdjust: set factor to 0.057
ElecMinimize: Iter:   8  F: -681.579725570537335  |grad|_K:  8.814e-09  alpha:  5.528e-01  linmin:  1.875e-03  t[s]:   4613.64
	FillingsUpdate:  mu: -0.097851480  nElectrons: 144.000000
	SubspaceRotationAdjust: set factor to 0.0634
ElecMinimize: Iter:   9  F: -681.579725577220529  |grad|_K:  7.353e-09  alpha:  5.175e-01  linmin:  2.826e-04  t[s]:   4640.52
	FillingsUpdate:  mu: -0.097856931  nElectrons: 144.000000
	SubspaceRotationAdjust: set factor to 0.0686
ElecMinimize: Iter:  10  F: -681.579725582373158  |grad|_K:  6.687e-09  alpha:  5.268e-01  linmin:  7.914e-04  t[s]:   4667.39
ElecMinimize: Converged (|Delta F|<1.000000e-08 for 2 iters).
Setting wave functions to eigenvectors of Hamiltonian
Converging empty states (this may take a while): |deigs|: 2.347e-09

# Ionic positions in lattice coordinates:
ion Na   0.000000000000000   0.000000000000000   0.215841271580854 1
ion Na   0.500000000000000   0.500000000000000   0.254122972666984 1
ion Na   0.000000000000000  -0.000000000000000   0.291818710425450 1
ion Na   0.500000000000000   0.500000000000000   0.329325157313545 1
ion Na   0.000000000000000   0.000000000000000   0.367519619579478 1
ion Na   0.500000000000000   0.500000000000000   0.405527537640100 1
ion Na   0.000000000000000   0.000000000000000   0.443444715916898 1
ion Na   0.500000000000000   0.500000000000000   0.481235301848049 1
ion Na   0.000000000000000   0.000000000000000   0.518764698151951 1
ion Na   0.500000000000000   0.500000000000000   0.556555284083102 1
ion Na   0.000000000000000   0.000000000000000   0.594472462359900 1
ion Na   0.500000000000000   0.500000000000000   0.632480380420522 1
ion Na   0.000000000000000   0.000000000000000   0.670674842686455 1
ion Na   0.500000000000000   0.500000000000000   0.708181289574550 1
ion Na   0.000000000000000   0.000000000000000   0.745877027333016 1
ion Na   0.500000000000000   0.500000000000000   0.784158728419146 1

# Forces in Lattice coordinates:
force Na   0.000000000000000   0.000000000000000  -0.000331598704668 1
force Na  -0.000000000000000  -0.000000000000000  -0.003787199623638 1
force Na   0.000000000000000   0.000000000000000  -0.003055050004701 1
force Na   0.000000000000000   0.000000000000000   0.000898335077458 1
force Na   0.000000000000000   0.000000000000000  -0.003462160097562 1
force Na   0.000000000000000  -0.000000000000000  -0.002979593559533 1
force Na   0.000000000000000  -0.000000000000000  -0.003323752521786 1
force Na   0.000000000000000  -0.000000000000000  -0.001958023670153 1
force Na   0.000000000000000   0.000000000000000   0.001958023670153 1
force Na   0.000000000000000  -0.000000000000000   0.003323752522241 1
force Na   0.000000000000000  -0.000000000000000   0.002979593559533 1
force Na   0.000000000000000   0.000000000000000   0.003462160096653 1
force Na   0.000000000000000   0.000000000000000  -0.000898335076548 1
force Na   0.000000000000000   0.000000000000000   0.003055050004701 1
force Na  -0.000000000000000  -0.000000000000000   0.003787199620000 1
force Na   0.000000000000000  -0.000000000000000   0.000331598704669 1

# Energy components:
   Eewald =   -22154.8521142254539882
       EH =   -21608.7038156799208082
     Eloc =    43042.0102233836660162
      Enl =     -206.9053747388773559
   Epulay =       -0.0000000382418518
      Exc =     -100.2045161805389029
       KE =      347.0765052527597163
-------------------------------------
     Etot =     -681.5790922266035068
       TS =        0.0006333557697010
-------------------------------------
        F =     -681.5797255823731575

IonicMinimize: Iter:   6  F: -681.579725582373158  |grad|_K:  1.512e-05  alpha:  1.000e+00  linmin: -2.958e-01  t[s]:   4693.35

#--- Lowdin population analysis ---
# oxidation-state Na +0.050 +0.055 +0.029 +0.048 +0.043 +0.038 +0.045 +0.040 +0.040 +0.045 +0.038 +0.043 +0.048 +0.029 +0.055 +0.050


-------- Electronic minimization -----------
	FillingsUpdate:  mu: -0.096584898  nElectrons: 144.000000
ElecMinimize: Iter:   0  F: -681.579710233690435  |grad|_K:  5.229e-07  alpha:  1.000e+00
	FillingsUpdate:  mu: -0.097952346  nElectrons: 144.000000
	SubspaceRotationAdjust: set factor to 0.05
ElecMinimize: Iter:   1  F: -681.579724701472628  |grad|_K:  1.180e-07  alpha:  2.820e-01  linmin: -2.751e-04  t[s]:   4740.74
	FillingsUpdate:  mu: -0.097528472  nElectrons: 144.000000
	SubspaceRotationAdjust: set factor to 0.0402
ElecMinimize: Iter:   2  F: -681.579725624725597  |grad|_K:  5.810e-08  alpha:  3.532e-01  linmin: -2.106e-04  t[s]:   4766.63
	FillingsUpdate:  mu: -0.097811042  nElectrons: 144.000000
	SubspaceRotationAdjust: set factor to 0.0427
ElecMinimize: Iter:   3  F: -681.579725927719210  |grad|_K:  3.816e-08  alpha:  4.785e-01  linmin:  2.397e-04  t[s]:   4793.58
	FillingsUpdate:  mu: -0.097918567  nElectrons: 144.000000
	SubspaceRotationAdjust: set factor to 0.0446
ElecMinimize: Iter:   4  F: -681.579726074157179  |grad|_K:  2.936e-08  alpha:  5.407e-01  linmin:  3.860e-04  t[s]:   4820.41
	FillingsUpdate:  mu: -0.097911320  nElectrons: 144.000000
	SubspaceRotationAdjust: set factor to 0.0473
ElecMinimize: Iter:   5  F: -681.579726169561127  |grad|_K:  2.207e-08  alpha:  5.915e-01  linmin:  6.813e-04  t[s]:   4847.27
	FillingsUpdate:  mu: -0.097882953  nElectrons: 144.000000
	SubspaceRotationAdjust: set factor to 0.0502
ElecMinimize: Iter:   6  F: -681.579726221839451  |grad|_K:  1.729e-08  alpha:  5.727e-01  linmin: -2.260e-03  t[s]:   4874.10
	FillingsUpdate:  mu: -0.097891716  nElectrons: 144.000000

Dumping 'X.fillings' ... done
Dumping 'X.wfns' ... done
Dumping 'X.ionpos' ... done
Dumping 'X.force' ... done
Dumping 'X.eigenvals' ... done
	SubspaceRotationAdjust: set factor to 0.054
ElecMinimize: Iter:   7  F: -681.579726254202114  |grad|_K:  1.514e-08  alpha:  5.656e-01  linmin:  1.524e-04  t[s]:   4903.82
	FillingsUpdate:  mu: -0.097894163  nElectrons: 144.000000
	SubspaceRotationAdjust: set factor to 0.0575
ElecMinimize: Iter:   8  F: -681.579726275215421  |grad|_K:  1.271e-08  alpha:  4.821e-01  linmin:  1.483e-04  t[s]:   4930.57
	FillingsUpdate:  mu: -0.097852697  nElectrons: 144.000000
	SubspaceRotationAdjust: set factor to 0.0617
ElecMinimize: Iter:   9  F: -681.579726290347253  |grad|_K:  1.073e-08  alpha:  5.134e-01  linmin: -3.581e-04  t[s]:   4956.75
	FillingsUpdate:  mu: -0.097827010  nElectrons: 144.000000
	SubspaceRotationAdjust: set factor to 0.0673
ElecMinimize: Iter:  10  F: -681.579726302201152  |grad|_K:  9.490e-09  alpha:  5.335e-01  linmin:  2.955e-05  t[s]:   4983.67
	FillingsUpdate:  mu: -0.097844554  nElectrons: 144.000000
	SubspaceRotationAdjust: set factor to 0.0709
ElecMinimize: Iter:  11  F: -681.579726311140575  |grad|_K:  7.962e-09  alpha:  5.102e-01  linmin:  4.799e-04  t[s]:   5010.67
	FillingsUpdate:  mu: -0.097836191  nElectrons: 144.000000
	SubspaceRotationAdjust: set factor to 0.0783
ElecMinimize: Iter:  12  F: -681.579726317047857  |grad|_K:  6.672e-09  alpha:  5.038e-01  linmin:  8.423e-04  t[s]:   5037.53
ElecMinimize: Converged (|Delta F|<1.000000e-08 for 2 iters).
Setting wave functions to eigenvectors of Hamiltonian
Converging empty states (this may take a while): |deigs|: 6.391e-09

# Ionic positions in lattice coordinates:
ion Na   0.000000000000000   0.000000000000000   0.215789723453012 1
ion Na   0.500000000000000   0.500000000000000   0.254034001230342 1
ion Na  -0.000000000000000  -0.000000000000000   0.291754864895947 1
ion Na   0.500000000000000   0.500000000000000   0.329323157165328 1
ion Na   0.000000000000000   0.000000000000000   0.367526015334646 1
ion Na   0.500000000000000   0.500000000000000   0.405541853659355 1
ion Na   0.000000000000000   0.000000000000000   0.443454224689595 1
ion Na   0.500000000000000   0.500000000000000   0.481236068946492 1
ion Na   0.000000000000000   0.000000000000000   0.518763931053508 1
ion Na   0.500000000000000   0.500000000000000   0.556545775310405 1
ion Na   0.000000000000000   0.000000000000000   0.594458146340645 1
ion Na   0.500000000000000   0.500000000000000   0.632473984665354 1
ion Na   0.000000000000000   0.000000000000000   0.670676842834671 1
ion Na   0.500000000000000   0.500000000000000   0.708245135104053 1
ion Na   0.000000000000000   0.000000000000000   0.745965998769658 1
ion Na   0.500000000000000   0.500000000000000   0.784210276546988 1

# Forces in Lattice coordinates:
force Na  -0.000000000000000  -0.000000000000000  -0.001630209248285 1
force Na   0.000000000000000  -0.000000000000000  -0.001918528734919 1
force Na   0.000000000000000   0.000000000000000  -0.001685394940363 1
force Na  -0.000000000000000  -0.000000000000000  -0.000809100418585 1
force Na   0.000000000000000   0.000000000000000  -0.002495821597345 1
force Na  -0.000000000000000   0.000000000000000  -0.001702303359242 1
force Na   0.000000000000000  -0.000000000000000  -0.001956650064204 1
force Na   0.000000000000000  -0.000000000000000  -0.001024118654194 1
force Na   0.000000000000000  -0.000000000000000   0.001024118654080 1
force Na  -0.000000000000000  -0.000000000000000   0.001956650064204 1
force Na  -0.000000000000000   0.000000000000000   0.001702303359242 1
force Na  -0.000000000000000   0.000000000000000   0.002495821597345 1
force Na   0.000000000000000  -0.000000000000000   0.000809100417676 1
force Na   0.000000000000000  -0.000000000000000   0.001685394938544 1
force Na   0.000000000000000   0.000000000000000   0.001918528733100 1
force Na  -0.000000000000000  -0.000000000000000   0.001630209251924 1

# Energy components:
   Eewald =   -22159.0870244741126953
       EH =   -21612.9360344735687249
     Eloc =    43050.4775161927900626
      Enl =     -206.9053190113903895
   Epulay =       -0.0000000382418518
      Exc =     -100.2043337930747811
       KE =      347.0761019094351241
-------------------------------------
     Etot =     -681.5790936881668358
       TS =        0.0006326288810167
-------------------------------------
        F =     -681.5797263170478573


Dumping 'X.fillings' ... done
Dumping 'X.wfns' ... done
Dumping 'X.ionpos' ... done
Dumping 'X.force' ... done
Dumping 'X.lattice' ... done
Dumping 'X.eigenvals' ... done
Dumping 'X.dos' ... done.
IonicMinimize: Iter:   7  F: -681.579726317047857  |grad|_K:  9.503e-06  alpha:  1.000e+00  linmin: -5.089e-01  t[s]:   5070.19
IonicMinimize: Converged (|grad|_K<1.000000e-05).

#--- Lowdin population analysis ---
# oxidation-state Na +0.050 +0.054 +0.029 +0.048 +0.043 +0.038 +0.045 +0.041 +0.041 +0.045 +0.038 +0.043 +0.048 +0.029 +0.054 +0.050


Dumping 'X.fillings' ... done
Dumping 'X.wfns' ... done
Dumping 'X.ionpos' ... done
Dumping 'X.lattice' ... done
Dumping 'X.n' ... done
Dumping 'X.eigenvals' ... done
Dumping 'X.eigStats' ... 
	eMin: -2.059404 at state 0 ( [ +0.000000 +0.000000 +0.000000 ] spin 0 )
	HOMO: -0.098130 at state 13 ( [ +0.181818 +0.363636 +0.000000 ] spin 0 )
	mu  : -0.097836
	LUMO: -0.097673 at state 5 ( [ +0.000000 +0.454545 +0.000000 ] spin 0 )
	eMax: +0.001216 at state 6 ( [ +0.090909 +0.090909 +0.000000 ] spin 0 )
	HOMO-LUMO gap: +0.000457
	Optical gap  : +0.002974 at state 10 ( [ +0.090909 +0.454545 +0.000000 ] spin 0 )
Dumping 'X.dos' ... done.
End date and time: Thu Nov  9 03:33:09 2023  (Duration: 0-1:24:34.18)
Done!
