
*************** JDFTx 1.7.0  ***************

Start date and time: Wed Nov  8 23:12:24 2023
Executable jdftx with command-line: -m -i X.in -o X.out
Running on hosts (process indices):  ac0170 (0-20)
Divided in process groups (process indices):  0 (0)  1 (1)  2 (2)  3 (3)  4 (4)  5 (5)  6 (6)  7 (7)  8 (8)  9 (9)  10 (10)  11 (11)  12 (12)  13 (13)  14 (14)  15 (15)  16 (16)  17 (17)  18 (18)  19 (19)  20 (20)
Resource initialization completed at t[s]:      0.01
Run totals: 21 processes, 21 threads, 0 GPUs


Input parsed successfully to the following command list (including defaults):

basis kpoint-dependent
cache-projectors no
coords-type Lattice
core-overlap-check vector
coulomb-interaction Slab 001
coulomb-truncation-embed 0 0 0.5
davidson-band-ratio 1.1
density-of-states Etol 1.000000e-06 Esigma 0.000000e+00 \
		Complete \
	Total \
		Occupied \
	Total
dump End State IonicPositions Lattice ElecDensity CoreDensity EigStats DOS
dump Electronic State Forces
dump Ionic State IonicPositions Forces Lattice DOS
dump-interval Electronic 8
dump-interval Ionic 4
dump-name X.$var
elec-cutoff 10
elec-eigen-algo Davidson
elec-ex-corr gga-PBE
elec-smearing Fermi 0.0095
electronic-minimize  \
	dirUpdateScheme      FletcherReeves \
	linminMethod         DirUpdateRecommended \
	nIterations          2000 \
	history              15 \
	knormThreshold       0 \
	energyDiffThreshold  1e-06 \
	nEnergyDiff          2 \
	alphaTstart          1 \
	alphaTmin            1e-10 \
	updateTestStepSize   yes \
	alphaTreduceFactor   0.1 \
	alphaTincreaseFactor 3 \
	nAlphaAdjustMax      3 \
	wolfeEnergy          0.0001 \
	wolfeGradient        0.9 \
	fdTest               no
exchange-regularization WignerSeitzTruncated
fluid None
fluid-ex-corr (null) lda-PZ
fluid-gummel-loop 10 1.000000e-05
fluid-minimize  \
	dirUpdateScheme      PolakRibiere \
	linminMethod         DirUpdateRecommended \
	nIterations          100 \
	history              15 \
	knormThreshold       0 \
	energyDiffThreshold  0 \
	nEnergyDiff          2 \
	alphaTstart          1 \
	alphaTmin            1e-10 \
	updateTestStepSize   yes \
	alphaTreduceFactor   0.1 \
	alphaTincreaseFactor 3 \
	nAlphaAdjustMax      3 \
	wolfeEnergy          0.0001 \
	wolfeGradient        0.9 \
	fdTest               no
fluid-solvent H2O 55.338 ScalarEOS \
	epsBulk 78.4 \
	pMol 0.92466 \
	epsInf 1.77 \
	Pvap 1.06736e-10 \
	sigmaBulk 4.62e-05 \
	Rvdw 2.61727 \
	Res 1.42 \
	tauNuc 343133 \
	poleEl 15 7 1
forces-output-coords Positions
initial-state X.$var
ion Na   0.000000000000000   0.000000000000000   0.370370000000000 1
ion Na   0.500000000000000   0.500000000000000   0.435190000000000 1
ion Na   0.000000000000000   0.000000000000000   0.500000000000000 1
ion Na   0.500000000000000   0.500000000000000   0.564810000000000 1
ion Na   0.000000000000000   0.000000000000000   0.629630000000000 1
ion-species SG15/$ID_ONCV_PBE.upf
ion-width 0
ionic-minimize  \
	dirUpdateScheme      L-BFGS \
	linminMethod         DirUpdateRecommended \
	nIterations          0 \
	history              15 \
	knormThreshold       0.0001 \
	energyDiffThreshold  1e-06 \
	nEnergyDiff          2 \
	alphaTstart          1 \
	alphaTmin            1e-10 \
	updateTestStepSize   yes \
	alphaTreduceFactor   0.1 \
	alphaTincreaseFactor 3 \
	nAlphaAdjustMax      3 \
	wolfeEnergy          0.0001 \
	wolfeGradient        0.9 \
	fdTest               no
kpoint   0.000000000000   0.000000000000   0.000000000000  1.00000000000000
kpoint-folding 11 11 1 
latt-move-scale 1 1 1
latt-scale 1.88973 1.88973 1.88973 
lattice  \
	   4.199920000000001   -0.000000000000000   -0.000000000000000  \
	   0.000000000000000    4.199920000000001   -0.000000000000000  \
	   0.000000000000000    0.000000000000000   32.399799999999992 
lattice-minimize  \
	dirUpdateScheme      L-BFGS \
	linminMethod         DirUpdateRecommended \
	nIterations          0 \
	history              15 \
	knormThreshold       0 \
	energyDiffThreshold  1e-06 \
	nEnergyDiff          2 \
	alphaTstart          1 \
	alphaTmin            1e-10 \
	updateTestStepSize   yes \
	alphaTreduceFactor   0.1 \
	alphaTincreaseFactor 3 \
	nAlphaAdjustMax      3 \
	wolfeEnergy          0.0001 \
	wolfeGradient        0.9 \
	fdTest               no
lcao-params -1 1e-06 0.0095
pcm-variant GLSSA13
spintype no-spin
subspace-rotation-factor 1 yes
symmetries automatic
symmetry-threshold 0.0001



---------- Setting up symmetries ----------

Found 16 point-group symmetries of the bravais lattice
Found 16 space-group symmetries with basis
Applied RMS atom displacement 0 bohrs to make symmetries exact.

---------- Initializing the Grid ----------
R = 
[      7.93671            0            0  ]
[            0      7.93671            0  ]
[            0            0      61.2269  ]
unit cell volume = 3856.77
G =
[   0.791661          0          0  ]
[         -0   0.791661          0  ]
[          0         -0   0.102621  ]
Minimum fftbox size, Smin = [  24  24  176  ]
Chosen fftbox size, S = [  24  24  180  ]

---------- Exchange Correlation functional ----------
Initalized PBE GGA exchange.
Initalized PBE GGA correlation.

---------- Setting up pseudopotentials ----------
Width of ionic core gaussian charges (only for fluid interactions / plotting) set to 0

Reading pseudopotential file '/net/software/testing/software/jdftx/1.7.0-foss-2021b-mkl/share/jdftx/pseudopotentials/SG15/Na_ONCV_PBE.upf':
  'Na' pseudopotential, 'PBE' functional
  Generated using ONCVPSP code by D. R. Hamann
  Author: Martin Schlipf and Francois Gygi  Date: 150915.
  9 valence electrons, 3 orbitals, 4 projectors, 1992 radial grid points, with lMax = 1
  Transforming local potential to a uniform radial grid of dG=0.02 with 821 points.
  Transforming nonlocal projectors to a uniform radial grid of dG=0.02 with 307 points.
    2S    l: 0   occupation:  2.0   eigenvalue: -2.085640
    2P    l: 1   occupation:  6.0   eigenvalue: -1.053708
    3S    l: 0   occupation:  1.0   eigenvalue: -0.100838
  Transforming atomic orbitals to a uniform radial grid of dG=0.02 with 307 points.
  Core radius for overlap checks: 2.01 bohrs.
  Reading pulay file /net/software/testing/software/jdftx/1.7.0-foss-2021b-mkl/share/jdftx/pseudopotentials/SG15/Na_ONCV_PBE.pulay ... using dE_dnG = -1.681960e+00 computed for Ecut = 10.

Initialized 1 species with 5 total atoms.

Folded 1 k-points by 11x11x1 to 121 k-points.

---------- Setting up k-points, bands, fillings ----------
Reduced to 21 k-points under symmetry. 
Computing the number of bands and number of electrons
Calculating initial fillings.
nElectrons:  45.000000   nBands: 25   nStates: 21

----- Setting up reduced wavefunction bases (one per k-point) -----
average nbasis = 5823.826 , ideal nbasis = 5825.291

----- Initializing Supercell corresponding to k-point mesh -----
Lattice vector linear combinations in supercell:
[  11   0   0  ]
[   0  11   0  ]
[   0   0   1  ]
Supercell lattice vectors:
[  87.3039  0  0  ]
[  0  87.3039  0  ]
[  0  0  61.2269  ]

---------- Setting up coulomb interaction ----------
Setting up double-sized grid for truncated Coulomb potentials:
R = 
[      7.93671            0            0  ]
[            0      7.93671            0  ]
[            0            0      122.454  ]
unit cell volume = 7713.54
G =
[   0.791661          0          0  ]
[         -0   0.791661          0  ]
[          0         -0  0.0513107  ]
Chosen fftbox size, S = [  24  24  360  ]
Integer grid location selected as the embedding center:
   Grid: [  0  0  90  ]
   Lattice: [  0  0  0.5  ]
   Cartesian: [  0  0  30.6134  ]
Constructing Wigner-Seitz cell: 6 faces (6 quadrilaterals, 0 hexagons)
Range-separation parameter for embedded mesh potentials due to point charges: 0.735775 bohrs.
Initialized slab truncation along lattice direction 001

---------- Setting up 2D ewald sum ----------
Optimum gaussian width for ewald sums = 4.734710 bohr.
Real space sums over 225 unit cells with max indices [  7  7  0  ]
Reciprocal space sums over 81 terms with max indices [  4  4  0  ]

---------- Allocating electronic variables ----------
Initializing wave functions:  linear combination of atomic orbitals
Na pseudo-atom occupations:   s ( 2 1 )  p ( 6 )
	FillingsUpdate:  mu: -0.088827510  nElectrons: 45.000000
LCAOMinimize: Iter:   0  F: -208.3520794147520405  |grad|_K:  2.150e-03  alpha:  1.000e+00
	FillingsUpdate:  mu: -0.142103333  nElectrons: 45.000000
LCAOMinimize: Iter:   1  F: -208.3585524866286107  |grad|_K:  5.633e-04  alpha:  1.954e-01  linmin:  4.014e-03  cgtest: -1.959e-02  t[s]:      0.57
LCAOMinimize: 	Predicted alpha/alphaT>3.000000, increasing alphaT to 5.860862e-01.
	FillingsUpdate:  mu: -0.137855942  nElectrons: 45.000000
LCAOMinimize: Iter:   2  F: -208.3604219216847468  |grad|_K:  8.004e-05  alpha:  8.092e-01  linmin: -1.847e-02  cgtest:  8.783e-01  t[s]:      0.84
LCAOMinimize: Encountered beta<0, resetting CG.
	FillingsUpdate:  mu: -0.135742970  nElectrons: 45.000000
LCAOMinimize: Iter:   3  F: -208.3604337065425511  |grad|_K:  4.780e-05  alpha:  2.590e-01  linmin: -4.626e-05  cgtest:  3.501e-03  t[s]:      1.04
	FillingsUpdate:  mu: -0.136548829  nElectrons: 45.000000
LCAOMinimize: Iter:   4  F: -208.3604442532209760  |grad|_K:  3.372e-06  alpha:  6.473e-01  linmin: -2.269e-03  cgtest:  5.047e-03  t[s]:      1.24
	FillingsUpdate:  mu: -0.136468790  nElectrons: 45.000000
LCAOMinimize: Iter:   5  F: -208.3604443081079012  |grad|_K:  1.301e-06  alpha:  6.759e-01  linmin:  3.070e-05  cgtest: -1.901e-02  t[s]:      1.45
	FillingsUpdate:  mu: -0.136496932  nElectrons: 45.000000
LCAOMinimize: Iter:   6  F: -208.3604443103275798  |grad|_K:  1.010e-07  alpha:  1.852e-01  linmin:  2.432e-03  cgtest: -6.136e-03  t[s]:      1.65
LCAOMinimize: Converged (|Delta F|<1.000000e-06 for 2 iters).


---- Citations for features of the code used in this run ----

   Software package:
      R. Sundararaman, K. Letchworth-Weaver, K.A. Schwarz, D. Gunceler, Y. Ozhabes and T.A. Arias, 'JDFTx: software for joint density-functional theory', SoftwareX 6, 278 (2017)

   gga-PBE exchange-correlation functional:
      J.P. Perdew, K. Burke and M. Ernzerhof, Phys. Rev. Lett. 77, 3865 (1996)

   Pseudopotentials:
      M Schlipf and F Gygi, Comput. Phys. Commun. 196, 36 (2015)

   Truncated Coulomb potentials:
      R. Sundararaman and T.A. Arias, Phys. Rev. B 87, 165122 (2013)

   Total energy minimization with Auxiliary Hamiltonian:
      C. Freysoldt, S. Boeck, and J. Neugebauer, Phys. Rev. B 79, 241103(R) (2009)

   Linear-tetrahedron sampling for density of states:
      G. Lehmann and M. Taut, Phys. status solidi (b) 54, 469 (1972)

This list may not be complete. Please suggest additional citations or
report any other bugs at https://github.com/shankar1729/jdftx/issues

Initialization completed successfully at t[s]:      1.68


-------- Electronic minimization -----------
	FillingsUpdate:  mu: -0.136496932  nElectrons: 45.000000
ElecMinimize: Iter:   0  F: -208.360444310327381  |grad|_K:  5.791e-04  alpha:  1.000e+00
	FillingsUpdate:  mu: -0.127438048  nElectrons: 45.000000
	SubspaceRotationAdjust: set factor to 1
ElecMinimize: Iter:   1  F: -208.659177513052043  |grad|_K:  1.478e-04  alpha:  2.916e-01  linmin:  3.485e-03  t[s]:      2.13
	FillingsUpdate:  mu: -0.131386096  nElectrons: 45.000000
	SubspaceRotationAdjust: set factor to 1.01
ElecMinimize: Iter:   2  F: -208.682701519541979  |grad|_K:  6.396e-05  alpha:  3.530e-01  linmin:  9.035e-06  t[s]:      2.40
	FillingsUpdate:  mu: -0.121829228  nElectrons: 45.000000
	SubspaceRotationAdjust: set factor to 1
ElecMinimize: Iter:   3  F: -208.689527406952550  |grad|_K:  5.247e-05  alpha:  5.449e-01  linmin: -2.883e-06  t[s]:      2.68
	FillingsUpdate:  mu: -0.130506832  nElectrons: 45.000000
	SubspaceRotationAdjust: set factor to 0.949
ElecMinimize: Iter:   4  F: -208.695567683529447  |grad|_K:  5.477e-05  alpha:  7.159e-01  linmin:  7.328e-06  t[s]:      2.95
	FillingsUpdate:  mu: -0.106092294  nElectrons: 45.000000
	SubspaceRotationAdjust: set factor to 0.81
ElecMinimize: Iter:   5  F: -208.700468040050708  |grad|_K:  4.549e-05  alpha:  5.315e-01  linmin: -2.227e-05  t[s]:      3.23
	FillingsUpdate:  mu: -0.116306839  nElectrons: 45.000000
	SubspaceRotationAdjust: set factor to 0.718
ElecMinimize: Iter:   6  F: -208.703484609924146  |grad|_K:  3.147e-05  alpha:  4.751e-01  linmin: -8.507e-07  t[s]:      3.50
	FillingsUpdate:  mu: -0.110724919  nElectrons: 45.000000

Dumping 'X.fillings' ... done
Dumping 'X.wfns' ... done
Dumping 'X.force' ... done
Dumping 'X.eigenvals' ... done
	SubspaceRotationAdjust: set factor to 0.74
ElecMinimize: Iter:   7  F: -208.705010776468640  |grad|_K:  2.278e-05  alpha:  5.029e-01  linmin:  3.017e-06  t[s]:      3.86
	FillingsUpdate:  mu: -0.107655322  nElectrons: 45.000000
	SubspaceRotationAdjust: set factor to 0.748
ElecMinimize: Iter:   8  F: -208.705828085978112  |grad|_K:  1.857e-05  alpha:  5.145e-01  linmin:  7.261e-07  t[s]:      4.13
	FillingsUpdate:  mu: -0.111266534  nElectrons: 45.000000
	SubspaceRotationAdjust: set factor to 0.73
ElecMinimize: Iter:   9  F: -208.706403722499772  |grad|_K:  1.602e-05  alpha:  5.450e-01  linmin: -6.146e-07  t[s]:      4.41
	FillingsUpdate:  mu: -0.110322714  nElectrons: 45.000000
	SubspaceRotationAdjust: set factor to 0.746
ElecMinimize: Iter:  10  F: -208.706839146712667  |grad|_K:  1.406e-05  alpha:  5.538e-01  linmin:  4.204e-06  t[s]:      4.68
	FillingsUpdate:  mu: -0.109099674  nElectrons: 45.000000
	SubspaceRotationAdjust: set factor to 0.767
ElecMinimize: Iter:  11  F: -208.707168444064450  |grad|_K:  1.181e-05  alpha:  5.438e-01  linmin:  1.700e-06  t[s]:      4.95
	FillingsUpdate:  mu: -0.110293824  nElectrons: 45.000000
	SubspaceRotationAdjust: set factor to 0.783
ElecMinimize: Iter:  12  F: -208.707377888522217  |grad|_K:  9.309e-06  alpha:  4.899e-01  linmin:  1.046e-06  t[s]:      5.23
	FillingsUpdate:  mu: -0.110047903  nElectrons: 45.000000
	SubspaceRotationAdjust: set factor to 0.791
ElecMinimize: Iter:  13  F: -208.707513057981629  |grad|_K:  7.675e-06  alpha:  5.093e-01  linmin: -8.098e-08  t[s]:      5.50
	FillingsUpdate:  mu: -0.110006384  nElectrons: 45.000000
	SubspaceRotationAdjust: set factor to 0.793
ElecMinimize: Iter:  14  F: -208.707612546033062  |grad|_K:  6.806e-06  alpha:  5.514e-01  linmin:  1.569e-06  t[s]:      5.77
	FillingsUpdate:  mu: -0.110600391  nElectrons: 45.000000

Dumping 'X.fillings' ... done
Dumping 'X.wfns' ... done
Dumping 'X.force' ... done
Dumping 'X.eigenvals' ... done
	SubspaceRotationAdjust: set factor to 0.806
ElecMinimize: Iter:  15  F: -208.707689669589797  |grad|_K:  5.948e-06  alpha:  5.437e-01  linmin:  9.853e-06  t[s]:      6.11
	FillingsUpdate:  mu: -0.110526211  nElectrons: 45.000000
	SubspaceRotationAdjust: set factor to 0.828
ElecMinimize: Iter:  16  F: -208.707747529729630  |grad|_K:  5.077e-06  alpha:  5.341e-01  linmin:  2.028e-06  t[s]:      6.40
	FillingsUpdate:  mu: -0.111063398  nElectrons: 45.000000
	SubspaceRotationAdjust: set factor to 0.842
ElecMinimize: Iter:  17  F: -208.707789592333938  |grad|_K:  4.425e-06  alpha:  5.328e-01  linmin:  1.518e-06  t[s]:      6.67
	FillingsUpdate:  mu: -0.111259693  nElectrons: 45.000000
	SubspaceRotationAdjust: set factor to 0.848
ElecMinimize: Iter:  18  F: -208.707821150510455  |grad|_K:  3.827e-06  alpha:  5.263e-01  linmin:  9.681e-07  t[s]:      6.95
	FillingsUpdate:  mu: -0.110988537  nElectrons: 45.000000
	SubspaceRotationAdjust: set factor to 0.849
ElecMinimize: Iter:  19  F: -208.707845391066655  |grad|_K:  3.369e-06  alpha:  5.403e-01  linmin:  2.298e-06  t[s]:      7.22
	FillingsUpdate:  mu: -0.111481764  nElectrons: 45.000000
	SubspaceRotationAdjust: set factor to 0.858
ElecMinimize: Iter:  20  F: -208.707864706106619  |grad|_K:  2.995e-06  alpha:  5.555e-01  linmin:  3.661e-06  t[s]:      7.50
	FillingsUpdate:  mu: -0.111364493  nElectrons: 45.000000
	SubspaceRotationAdjust: set factor to 0.884
ElecMinimize: Iter:  21  F: -208.707879761356338  |grad|_K:  2.650e-06  alpha:  5.480e-01  linmin:  5.557e-07  t[s]:      7.77
	FillingsUpdate:  mu: -0.111181434  nElectrons: 45.000000
	SubspaceRotationAdjust: set factor to 0.887
ElecMinimize: Iter:  22  F: -208.707891451715199  |grad|_K:  2.329e-06  alpha:  5.435e-01  linmin:  6.743e-07  t[s]:      8.04
	FillingsUpdate:  mu: -0.111616494  nElectrons: 45.000000

Dumping 'X.fillings' ... done
Dumping 'X.wfns' ... done
Dumping 'X.force' ... done
Dumping 'X.eigenvals' ... done
	SubspaceRotationAdjust: set factor to 0.867
ElecMinimize: Iter:  23  F: -208.707900216022608  |grad|_K:  2.024e-06  alpha:  5.275e-01  linmin:  2.216e-06  t[s]:      8.38
	FillingsUpdate:  mu: -0.111402610  nElectrons: 45.000000
	SubspaceRotationAdjust: set factor to 0.876
ElecMinimize: Iter:  24  F: -208.707907191808602  |grad|_K:  1.817e-06  alpha:  5.560e-01  linmin:  1.293e-06  t[s]:      8.66
	FillingsUpdate:  mu: -0.111364311  nElectrons: 45.000000
	SubspaceRotationAdjust: set factor to 0.905
ElecMinimize: Iter:  25  F: -208.707912875621275  |grad|_K:  1.622e-06  alpha:  5.618e-01  linmin:  3.463e-07  t[s]:      8.93
	FillingsUpdate:  mu: -0.111573106  nElectrons: 45.000000
	SubspaceRotationAdjust: set factor to 0.898
ElecMinimize: Iter:  26  F: -208.707917125069457  |grad|_K:  1.384e-06  alpha:  5.270e-01  linmin:  1.569e-07  t[s]:      9.20
	FillingsUpdate:  mu: -0.111343306  nElectrons: 45.000000
	SubspaceRotationAdjust: set factor to 0.881
ElecMinimize: Iter:  27  F: -208.707920214792239  |grad|_K:  1.203e-06  alpha:  5.266e-01  linmin: -1.430e-07  t[s]:      9.48
	FillingsUpdate:  mu: -0.111409326  nElectrons: 45.000000
	SubspaceRotationAdjust: set factor to 0.894
ElecMinimize: Iter:  28  F: -208.707922711930394  |grad|_K:  1.101e-06  alpha:  5.631e-01  linmin:  4.121e-06  t[s]:      9.75
	FillingsUpdate:  mu: -0.111476822  nElectrons: 45.000000
	SubspaceRotationAdjust: set factor to 0.914
ElecMinimize: Iter:  29  F: -208.707924792059345  |grad|_K:  1.001e-06  alpha:  5.601e-01  linmin:  7.034e-07  t[s]:     10.02
	FillingsUpdate:  mu: -0.111368449  nElectrons: 45.000000
	SubspaceRotationAdjust: set factor to 0.915
ElecMinimize: Iter:  30  F: -208.707926490585749  |grad|_K:  8.989e-07  alpha:  5.537e-01  linmin:  3.801e-07  t[s]:     10.29
	FillingsUpdate:  mu: -0.111485506  nElectrons: 45.000000

Dumping 'X.fillings' ... done
Dumping 'X.wfns' ... done
Dumping 'X.force' ... done
Dumping 'X.eigenvals' ... done
	SubspaceRotationAdjust: set factor to 0.907
ElecMinimize: Iter:  31  F: -208.707927853213818  |grad|_K:  7.987e-07  alpha:  5.506e-01  linmin:  1.135e-06  t[s]:     10.65
	FillingsUpdate:  mu: -0.111435412  nElectrons: 45.000000
	SubspaceRotationAdjust: set factor to 0.914
ElecMinimize: Iter:  32  F: -208.707928957863118  |grad|_K:  7.354e-07  alpha:  5.653e-01  linmin:  2.804e-06  t[s]:     10.91
	FillingsUpdate:  mu: -0.111405129  nElectrons: 45.000000
	SubspaceRotationAdjust: set factor to 0.933
ElecMinimize: Iter:  33  F: -208.707929924993067  |grad|_K:  6.998e-07  alpha:  5.839e-01  linmin:  4.139e-08  t[s]:     11.16
	FillingsUpdate:  mu: -0.111463545  nElectrons: 45.000000
	SubspaceRotationAdjust: set factor to 0.939
ElecMinimize: Iter:  34  F: -208.707930775108736  |grad|_K:  6.442e-07  alpha:  5.666e-01  linmin:  1.435e-07  t[s]:     11.42
ElecMinimize: Converged (|Delta F|<1.000000e-06 for 2 iters).
Setting wave functions to eigenvectors of Hamiltonian

# Ionic positions in lattice coordinates:
ion Na   0.000000000000000   0.000000000000000   0.370370000000000 1
ion Na   0.500000000000000   0.500000000000000   0.435190000000000 1
ion Na   0.000000000000000   0.000000000000000   0.500000000000000 1
ion Na   0.500000000000000   0.500000000000000   0.564810000000000 1
ion Na   0.000000000000000   0.000000000000000   0.629630000000000 1

# Forces in Lattice coordinates:
force Na   0.000000000000000  -0.000000000000000   0.011607582158526 1
force Na  -0.000000000000000  -0.000000000000000  -0.021849522935967 1
force Na   0.000000000000000   0.000000000000000   0.000000000000000 1
force Na  -0.000000000000000  -0.000000000000000   0.021849522936194 1
force Na  -0.000000000000000  -0.000000000000000  -0.011607582158754 1

# Energy components:
   Eewald =     -746.1913931499963155
       EH =     -584.4949293416700584
     Eloc =     1110.2112989318600285
      Enl =      -57.7292000498126754
   Epulay =       -0.0031938238337644
      Exc =      -29.8636566328799447
       KE =       99.3827003025785700
-------------------------------------
     Etot =     -208.6883737637542993
       TS =        0.0195570113544357
-------------------------------------
        F =     -208.7079307751087356

IonicMinimize: Iter:   0  F: -208.707930775108736  |grad|_K:  1.476e-04  t[s]:     11.47
IonicMinimize: None of the convergence criteria satisfied after 0 iterations.

#--- Lowdin population analysis ---
# oxidation-state Na +0.068 +0.049 +0.029 +0.049 +0.068


Dumping 'X.fillings' ... done
Dumping 'X.wfns' ... done
Dumping 'X.ionpos' ... done
Dumping 'X.lattice' ... done
Dumping 'X.n' ... done
Dumping 'X.eigenvals' ... done
Dumping 'X.eigStats' ... 
	eMin: -2.306105 at state 1 ( [ +0.000000 +0.090909 +0.000000 ] spin 0 )
	HOMO: -0.113681 at state 9 ( [ +0.090909 +0.363636 +0.000000 ] spin 0 )
	mu  : -0.111464
	LUMO: -0.110870 at state 15 ( [ +0.272727 +0.272727 +0.000000 ] spin 0 )
	eMax: -0.024123 at state 18 ( [ +0.363636 +0.363636 +0.000000 ] spin 0 )
	HOMO-LUMO gap: +0.002812
	Optical gap  : +0.020890 at state 9 ( [ +0.090909 +0.363636 +0.000000 ] spin 0 )
Dumping 'X.dos' ... done.
End date and time: Wed Nov  8 23:12:36 2023  (Duration: 0-0:00:11.58)
Done!

*************** JDFTx 1.7.0  ***************

Start date and time: Wed Nov  8 23:12:38 2023
Executable jdftx with command-line: -m -i X.in -o X.out
Running on hosts (process indices):  ac0170 (0-20)
Divided in process groups (process indices):  0 (0)  1 (1)  2 (2)  3 (3)  4 (4)  5 (5)  6 (6)  7 (7)  8 (8)  9 (9)  10 (10)  11 (11)  12 (12)  13 (13)  14 (14)  15 (15)  16 (16)  17 (17)  18 (18)  19 (19)  20 (20)
Resource initialization completed at t[s]:      0.02
Run totals: 21 processes, 21 threads, 0 GPUs


Input parsed successfully to the following command list (including defaults):

basis kpoint-dependent
cache-projectors no
coords-type Lattice
core-overlap-check vector
coulomb-interaction Slab 001
coulomb-truncation-embed 0 0 0.5
davidson-band-ratio 1.1
density-of-states Etol 1.000000e-06 Esigma 0.000000e+00 \
		Complete \
	Total \
		Occupied \
	Total
dump End State IonicPositions Lattice ElecDensity CoreDensity EigStats DOS
dump Electronic State Forces
dump Ionic State IonicPositions Forces Lattice DOS
dump-interval Electronic 8
dump-interval Ionic 4
dump-name X.$var
elec-cutoff 20
elec-eigen-algo Davidson
elec-ex-corr gga-PBE
elec-smearing Fermi 0.0095
electronic-minimize  \
	dirUpdateScheme      FletcherReeves \
	linminMethod         DirUpdateRecommended \
	nIterations          2000 \
	history              15 \
	knormThreshold       0 \
	energyDiffThreshold  1e-07 \
	nEnergyDiff          2 \
	alphaTstart          1 \
	alphaTmin            1e-10 \
	updateTestStepSize   yes \
	alphaTreduceFactor   0.1 \
	alphaTincreaseFactor 3 \
	nAlphaAdjustMax      3 \
	wolfeEnergy          0.0001 \
	wolfeGradient        0.9 \
	fdTest               no
exchange-regularization WignerSeitzTruncated
fluid None
fluid-ex-corr (null) lda-PZ
fluid-gummel-loop 10 1.000000e-05
fluid-minimize  \
	dirUpdateScheme      PolakRibiere \
	linminMethod         DirUpdateRecommended \
	nIterations          100 \
	history              15 \
	knormThreshold       0 \
	energyDiffThreshold  0 \
	nEnergyDiff          2 \
	alphaTstart          1 \
	alphaTmin            1e-10 \
	updateTestStepSize   yes \
	alphaTreduceFactor   0.1 \
	alphaTincreaseFactor 3 \
	nAlphaAdjustMax      3 \
	wolfeEnergy          0.0001 \
	wolfeGradient        0.9 \
	fdTest               no
fluid-solvent H2O 55.338 ScalarEOS \
	epsBulk 78.4 \
	pMol 0.92466 \
	epsInf 1.77 \
	Pvap 1.06736e-10 \
	sigmaBulk 4.62e-05 \
	Rvdw 2.61727 \
	Res 1.42 \
	tauNuc 343133 \
	poleEl 15 7 1
forces-output-coords Positions
ion Na   0.000000000000000   0.000000000000000   0.370370000000000 1
ion Na   0.500000000000000   0.500000000000000   0.435190000000000 1
ion Na   0.000000000000000   0.000000000000000   0.500000000000000 1
ion Na   0.500000000000000   0.500000000000000   0.564810000000000 1
ion Na   0.000000000000000   0.000000000000000   0.629630000000000 1
ion-species SG15/$ID_ONCV_PBE.upf
ion-width 0
ionic-minimize  \
	dirUpdateScheme      L-BFGS \
	linminMethod         DirUpdateRecommended \
	nIterations          0 \
	history              15 \
	knormThreshold       0.0001 \
	energyDiffThreshold  1e-06 \
	nEnergyDiff          2 \
	alphaTstart          1 \
	alphaTmin            1e-10 \
	updateTestStepSize   yes \
	alphaTreduceFactor   0.1 \
	alphaTincreaseFactor 3 \
	nAlphaAdjustMax      3 \
	wolfeEnergy          0.0001 \
	wolfeGradient        0.9 \
	fdTest               no
kpoint   0.000000000000   0.000000000000   0.000000000000  1.00000000000000
kpoint-folding 11 11 1 
latt-move-scale 1 1 1
latt-scale 1 1 1 
lattice  \
	   7.936714821600003   -0.000000000000000   -0.000000000000000  \
	   0.000000000000000    7.936714821600003   -0.000000000000000  \
	   0.000000000000000    0.000000000000000   61.226874053999992 
lattice-minimize  \
	dirUpdateScheme      L-BFGS \
	linminMethod         DirUpdateRecommended \
	nIterations          0 \
	history              15 \
	knormThreshold       0 \
	energyDiffThreshold  1e-06 \
	nEnergyDiff          2 \
	alphaTstart          1 \
	alphaTmin            1e-10 \
	updateTestStepSize   yes \
	alphaTreduceFactor   0.1 \
	alphaTincreaseFactor 3 \
	nAlphaAdjustMax      3 \
	wolfeEnergy          0.0001 \
	wolfeGradient        0.9 \
	fdTest               no
lcao-params -1 1e-06 0.0095
pcm-variant GLSSA13
spintype no-spin
subspace-rotation-factor 1 yes
symmetries automatic
symmetry-threshold 0.0001
wavefunction read X.wfns 25 10.000000



---------- Setting up symmetries ----------

Found 16 point-group symmetries of the bravais lattice
Found 16 space-group symmetries with basis
Applied RMS atom displacement 0 bohrs to make symmetries exact.

---------- Initializing the Grid ----------
R = 
[      7.93671            0            0  ]
[            0      7.93671            0  ]
[            0            0      61.2269  ]
unit cell volume = 3856.77
G =
[   0.791661          0          0  ]
[         -0   0.791661          0  ]
[          0         -0   0.102621  ]
Minimum fftbox size, Smin = [  32  32  248  ]
Chosen fftbox size, S = [  32  32  250  ]

---------- Exchange Correlation functional ----------
Initalized PBE GGA exchange.
Initalized PBE GGA correlation.

---------- Setting up pseudopotentials ----------
Width of ionic core gaussian charges (only for fluid interactions / plotting) set to 0

Reading pseudopotential file '/net/software/testing/software/jdftx/1.7.0-foss-2021b-mkl/share/jdftx/pseudopotentials/SG15/Na_ONCV_PBE.upf':
  'Na' pseudopotential, 'PBE' functional
  Generated using ONCVPSP code by D. R. Hamann
  Author: Martin Schlipf and Francois Gygi  Date: 150915.
  9 valence electrons, 3 orbitals, 4 projectors, 1992 radial grid points, with lMax = 1
  Transforming local potential to a uniform radial grid of dG=0.02 with 1107 points.
  Transforming nonlocal projectors to a uniform radial grid of dG=0.02 with 432 points.
    2S    l: 0   occupation:  2.0   eigenvalue: -2.085640
    2P    l: 1   occupation:  6.0   eigenvalue: -1.053708
    3S    l: 0   occupation:  1.0   eigenvalue: -0.100838
  Transforming atomic orbitals to a uniform radial grid of dG=0.02 with 432 points.
  Core radius for overlap checks: 2.01 bohrs.
  Reading pulay file /net/software/testing/software/jdftx/1.7.0-foss-2021b-mkl/share/jdftx/pseudopotentials/SG15/Na_ONCV_PBE.pulay ... using dE_dnG = -2.946487e-03 computed for Ecut = 20.

Initialized 1 species with 5 total atoms.

Folded 1 k-points by 11x11x1 to 121 k-points.

---------- Setting up k-points, bands, fillings ----------
Reduced to 21 k-points under symmetry. 
Computing the number of bands and number of electrons
Calculating initial fillings.
nElectrons:  45.000000   nBands: 25   nStates: 21

----- Setting up reduced wavefunction bases (one per k-point) -----
average nbasis = 16475.165 , ideal nbasis = 16476.411

----- Initializing Supercell corresponding to k-point mesh -----
Lattice vector linear combinations in supercell:
[  11   0   0  ]
[   0  11   0  ]
[   0   0   1  ]
Supercell lattice vectors:
[  87.3039  0  0  ]
[  0  87.3039  0  ]
[  0  0  61.2269  ]

---------- Setting up coulomb interaction ----------
Setting up double-sized grid for truncated Coulomb potentials:
R = 
[      7.93671            0            0  ]
[            0      7.93671            0  ]
[            0            0      122.454  ]
unit cell volume = 7713.54
G =
[   0.791661          0          0  ]
[         -0   0.791661          0  ]
[          0         -0  0.0513107  ]
Chosen fftbox size, S = [  32  32  500  ]
Integer grid location selected as the embedding center:
   Grid: [  0  0  125  ]
   Lattice: [  0  0  0.5  ]
   Cartesian: [  0  0  30.6134  ]
Constructing Wigner-Seitz cell: 6 faces (6 quadrilaterals, 0 hexagons)
Range-separation parameter for embedded mesh potentials due to point charges: 0.628283 bohrs.
Initialized slab truncation along lattice direction 001

---------- Setting up 2D ewald sum ----------
Optimum gaussian width for ewald sums = 4.734710 bohr.
Real space sums over 225 unit cells with max indices [  7  7  0  ]
Reciprocal space sums over 81 terms with max indices [  4  4  0  ]

---------- Allocating electronic variables ----------
Initializing wave functions:  reading from 'X.wfns'


---- Citations for features of the code used in this run ----

   Software package:
      R. Sundararaman, K. Letchworth-Weaver, K.A. Schwarz, D. Gunceler, Y. Ozhabes and T.A. Arias, 'JDFTx: software for joint density-functional theory', SoftwareX 6, 278 (2017)

   gga-PBE exchange-correlation functional:
      J.P. Perdew, K. Burke and M. Ernzerhof, Phys. Rev. Lett. 77, 3865 (1996)

   Pseudopotentials:
      M Schlipf and F Gygi, Comput. Phys. Commun. 196, 36 (2015)

   Truncated Coulomb potentials:
      R. Sundararaman and T.A. Arias, Phys. Rev. B 87, 165122 (2013)

   Total energy minimization with Auxiliary Hamiltonian:
      C. Freysoldt, S. Boeck, and J. Neugebauer, Phys. Rev. B 79, 241103(R) (2009)

   Linear-tetrahedron sampling for density of states:
      G. Lehmann and M. Taut, Phys. status solidi (b) 54, 469 (1972)

This list may not be complete. Please suggest additional citations or
report any other bugs at https://github.com/shankar1729/jdftx/issues

Initialization completed successfully at t[s]:      0.31


Setting the auxilliary hamiltonian equal to the subspace hamiltonian.

-------- Electronic minimization -----------
	FillingsUpdate:  mu: -0.141818998  nElectrons: 45.000000
ElecMinimize: Iter:   0  F: -208.702473877262065  |grad|_K:  1.336e-03  alpha:  1.000e+00
	FillingsUpdate:  mu: -0.082864980  nElectrons: 45.000000
	SubspaceRotationAdjust: set factor to 0.997
ElecMinimize: Iter:   1  F: -212.551659634765542  |grad|_K:  4.167e-04  alpha:  2.749e-01  linmin:  3.065e-02  t[s]:      2.37
	FillingsUpdate:  mu: -0.105644574  nElectrons: 45.000000
	SubspaceRotationAdjust: set factor to 0.992
ElecMinimize: Iter:   2  F: -212.945524775987280  |grad|_K:  1.017e-04  alpha:  2.885e-01  linmin: -1.283e-03  t[s]:      3.33
	FillingsUpdate:  mu: -0.093250921  nElectrons: 45.000000
	SubspaceRotationAdjust: set factor to 1.02
ElecMinimize: Iter:   3  F: -212.970678662246968  |grad|_K:  4.004e-05  alpha:  2.792e-01  linmin: -2.955e-05  t[s]:      4.29
	FillingsUpdate:  mu: -0.099146523  nElectrons: 45.000000
	SubspaceRotationAdjust: set factor to 1.13
ElecMinimize: Iter:   4  F: -212.975167695527631  |grad|_K:  1.849e-05  alpha:  3.232e-01  linmin: -2.171e-06  t[s]:      5.25
	FillingsUpdate:  mu: -0.097145330  nElectrons: 45.000000
	SubspaceRotationAdjust: set factor to 1.21
ElecMinimize: Iter:   5  F: -212.976376476638450  |grad|_K:  1.240e-05  alpha:  4.089e-01  linmin:  6.048e-06  t[s]:      6.21
	FillingsUpdate:  mu: -0.099420962  nElectrons: 45.000000
	SubspaceRotationAdjust: set factor to 1.18
ElecMinimize: Iter:   6  F: -212.976996453358169  |grad|_K:  9.759e-06  alpha:  4.671e-01  linmin:  8.156e-06  t[s]:      7.16
	FillingsUpdate:  mu: -0.098719018  nElectrons: 45.000000

Dumping 'X.fillings' ... done
Dumping 'X.wfns' ... done
Dumping 'X.force' ... done
Dumping 'X.eigenvals' ... done
	SubspaceRotationAdjust: set factor to 1.19
ElecMinimize: Iter:   7  F: -212.977401803599179  |grad|_K:  7.827e-06  alpha:  4.936e-01  linmin:  3.173e-06  t[s]:      8.22
	FillingsUpdate:  mu: -0.100914807  nElectrons: 45.000000
	SubspaceRotationAdjust: set factor to 1.3
ElecMinimize: Iter:   8  F: -212.977695930795960  |grad|_K:  6.777e-06  alpha:  5.554e-01  linmin: -3.073e-06  t[s]:      9.18
	FillingsUpdate:  mu: -0.099007827  nElectrons: 45.000000
	SubspaceRotationAdjust: set factor to 1.28
ElecMinimize: Iter:   9  F: -212.977883788656214  |grad|_K:  5.155e-06  alpha:  4.729e-01  linmin: -1.363e-06  t[s]:     10.12
	FillingsUpdate:  mu: -0.101900207  nElectrons: 45.000000
	SubspaceRotationAdjust: set factor to 1.05
ElecMinimize: Iter:  10  F: -212.977978321409893  |grad|_K:  4.013e-06  alpha:  4.110e-01  linmin: -9.375e-07  t[s]:     11.08
	FillingsUpdate:  mu: -0.098933866  nElectrons: 45.000000
	SubspaceRotationAdjust: set factor to 0.787
ElecMinimize: Iter:  11  F: -212.978035291280491  |grad|_K:  3.482e-06  alpha:  4.089e-01  linmin: -3.069e-06  t[s]:     12.04
	FillingsUpdate:  mu: -0.101118105  nElectrons: 45.000000
	SubspaceRotationAdjust: set factor to 0.754
ElecMinimize: Iter:  12  F: -212.978087917623839  |grad|_K:  3.088e-06  alpha:  5.015e-01  linmin:  1.727e-05  t[s]:     13.03
	FillingsUpdate:  mu: -0.101661439  nElectrons: 45.000000
	SubspaceRotationAdjust: set factor to 0.825
ElecMinimize: Iter:  13  F: -212.978128988010980  |grad|_K:  2.753e-06  alpha:  4.983e-01  linmin:  1.639e-06  t[s]:     13.98
	FillingsUpdate:  mu: -0.100297779  nElectrons: 45.000000
	SubspaceRotationAdjust: set factor to 0.745
ElecMinimize: Iter:  14  F: -212.978158026405850  |grad|_K:  2.143e-06  alpha:  4.431e-01  linmin:  9.558e-07  t[s]:     14.94
	FillingsUpdate:  mu: -0.100938099  nElectrons: 45.000000

Dumping 'X.fillings' ... done
Dumping 'X.wfns' ... done
Dumping 'X.force' ... done
Dumping 'X.eigenvals' ... done
	SubspaceRotationAdjust: set factor to 0.745
ElecMinimize: Iter:  15  F: -212.978177125958865  |grad|_K:  1.770e-06  alpha:  4.806e-01  linmin:  9.659e-07  t[s]:     16.02
	FillingsUpdate:  mu: -0.101352352  nElectrons: 45.000000
	SubspaceRotationAdjust: set factor to 0.757
ElecMinimize: Iter:  16  F: -212.978191305016622  |grad|_K:  1.632e-06  alpha:  5.230e-01  linmin:  1.096e-06  t[s]:     16.98
	FillingsUpdate:  mu: -0.100791671  nElectrons: 45.000000
	SubspaceRotationAdjust: set factor to 0.758
ElecMinimize: Iter:  17  F: -212.978203623554180  |grad|_K:  1.523e-06  alpha:  5.347e-01  linmin:  1.356e-06  t[s]:     17.94
	FillingsUpdate:  mu: -0.100895874  nElectrons: 45.000000
	SubspaceRotationAdjust: set factor to 0.788
ElecMinimize: Iter:  18  F: -212.978213568187073  |grad|_K:  1.297e-06  alpha:  4.955e-01  linmin:  1.004e-07  t[s]:     18.90
	FillingsUpdate:  mu: -0.101142165  nElectrons: 45.000000
	SubspaceRotationAdjust: set factor to 0.78
ElecMinimize: Iter:  19  F: -212.978220631569968  |grad|_K:  1.102e-06  alpha:  4.853e-01  linmin:  8.605e-08  t[s]:     19.85
	FillingsUpdate:  mu: -0.100931296  nElectrons: 45.000000
	SubspaceRotationAdjust: set factor to 0.772
ElecMinimize: Iter:  20  F: -212.978226086210640  |grad|_K:  1.022e-06  alpha:  5.189e-01  linmin:  2.454e-07  t[s]:     20.85
	FillingsUpdate:  mu: -0.100974886  nElectrons: 45.000000
	SubspaceRotationAdjust: set factor to 0.786
ElecMinimize: Iter:  21  F: -212.978231000995436  |grad|_K:  9.609e-07  alpha:  5.438e-01  linmin:  1.124e-06  t[s]:     21.87
	FillingsUpdate:  mu: -0.101019703  nElectrons: 45.000000
	SubspaceRotationAdjust: set factor to 0.807
ElecMinimize: Iter:  22  F: -212.978235284263320  |grad|_K:  8.955e-07  alpha:  5.363e-01  linmin:  1.126e-06  t[s]:     22.82
	FillingsUpdate:  mu: -0.100918510  nElectrons: 45.000000

Dumping 'X.fillings' ... done
Dumping 'X.wfns' ... done
Dumping 'X.force' ... done
Dumping 'X.eigenvals' ... done
	SubspaceRotationAdjust: set factor to 0.819
ElecMinimize: Iter:  23  F: -212.978238847641677  |grad|_K:  8.055e-07  alpha:  5.137e-01  linmin:  2.614e-07  t[s]:     23.92
	FillingsUpdate:  mu: -0.100991487  nElectrons: 45.000000
	SubspaceRotationAdjust: set factor to 0.815
ElecMinimize: Iter:  24  F: -212.978241754623269  |grad|_K:  7.356e-07  alpha:  5.179e-01  linmin:  5.199e-07  t[s]:     24.88
	FillingsUpdate:  mu: -0.100922563  nElectrons: 45.000000
	SubspaceRotationAdjust: set factor to 0.816
ElecMinimize: Iter:  25  F: -212.978244293251663  |grad|_K:  6.920e-07  alpha:  5.424e-01  linmin:  4.249e-07  t[s]:     25.84
	FillingsUpdate:  mu: -0.100863861  nElectrons: 45.000000
	SubspaceRotationAdjust: set factor to 0.836
ElecMinimize: Iter:  26  F: -212.978246465894927  |grad|_K:  6.407e-07  alpha:  5.246e-01  linmin:  7.452e-07  t[s]:     26.80
	FillingsUpdate:  mu: -0.100987334  nElectrons: 45.000000
	SubspaceRotationAdjust: set factor to 0.849
ElecMinimize: Iter:  27  F: -212.978248344684260  |grad|_K:  5.879e-07  alpha:  5.291e-01  linmin:  1.828e-06  t[s]:     27.76
	FillingsUpdate:  mu: -0.100883527  nElectrons: 45.000000
	SubspaceRotationAdjust: set factor to 0.851
ElecMinimize: Iter:  28  F: -212.978249935914050  |grad|_K:  5.384e-07  alpha:  5.322e-01  linmin:  4.754e-07  t[s]:     28.72
	FillingsUpdate:  mu: -0.100845697  nElectrons: 45.000000
	SubspaceRotationAdjust: set factor to 0.852
ElecMinimize: Iter:  29  F: -212.978251192535879  |grad|_K:  4.825e-07  alpha:  5.012e-01  linmin:  2.939e-07  t[s]:     29.68
	FillingsUpdate:  mu: -0.100961908  nElectrons: 45.000000
	SubspaceRotationAdjust: set factor to 0.845
ElecMinimize: Iter:  30  F: -212.978252213171316  |grad|_K:  4.279e-07  alpha:  5.069e-01  linmin:  1.062e-06  t[s]:     30.63
	FillingsUpdate:  mu: -0.100860441  nElectrons: 45.000000

Dumping 'X.fillings' ... done
Dumping 'X.wfns' ... done
Dumping 'X.force' ... done
Dumping 'X.eigenvals' ... done
	SubspaceRotationAdjust: set factor to 0.858
ElecMinimize: Iter:  31  F: -212.978253064141626  |grad|_K:  3.951e-07  alpha:  5.373e-01  linmin: -6.397e-08  t[s]:     31.74
	FillingsUpdate:  mu: -0.100846226  nElectrons: 45.000000
	SubspaceRotationAdjust: set factor to 0.879
ElecMinimize: Iter:  32  F: -212.978253773196883  |grad|_K:  3.627e-07  alpha:  5.250e-01  linmin: -2.287e-07  t[s]:     32.69
	FillingsUpdate:  mu: -0.100935772  nElectrons: 45.000000
	SubspaceRotationAdjust: set factor to 0.86
ElecMinimize: Iter:  33  F: -212.978254332510716  |grad|_K:  3.164e-07  alpha:  4.913e-01  linmin:  1.806e-07  t[s]:     33.65
	FillingsUpdate:  mu: -0.100861848  nElectrons: 45.000000
	SubspaceRotationAdjust: set factor to 0.848
ElecMinimize: Iter:  34  F: -212.978254773507075  |grad|_K:  2.812e-07  alpha:  5.091e-01  linmin: -2.625e-07  t[s]:     34.61
	FillingsUpdate:  mu: -0.100865027  nElectrons: 45.000000
	SubspaceRotationAdjust: set factor to 0.871
ElecMinimize: Iter:  35  F: -212.978255133566336  |grad|_K:  2.588e-07  alpha:  5.264e-01  linmin: -1.421e-07  t[s]:     35.57
	FillingsUpdate:  mu: -0.100918590  nElectrons: 45.000000
	SubspaceRotationAdjust: set factor to 0.879
ElecMinimize: Iter:  36  F: -212.978255437553628  |grad|_K:  2.380e-07  alpha:  5.247e-01  linmin:  1.435e-06  t[s]:     36.52
	FillingsUpdate:  mu: -0.100865398  nElectrons: 45.000000
	SubspaceRotationAdjust: set factor to 0.871
ElecMinimize: Iter:  37  F: -212.978255688843234  |grad|_K:  2.114e-07  alpha:  5.127e-01  linmin:  2.003e-08  t[s]:     37.48
	FillingsUpdate:  mu: -0.100875570  nElectrons: 45.000000
	SubspaceRotationAdjust: set factor to 0.871
ElecMinimize: Iter:  38  F: -212.978255882266467  |grad|_K:  1.868e-07  alpha:  5.002e-01  linmin: -1.239e-06  t[s]:     38.43
	FillingsUpdate:  mu: -0.100900151  nElectrons: 45.000000

Dumping 'X.fillings' ... done
Dumping 'X.wfns' ... done
Dumping 'X.force' ... done
Dumping 'X.eigenvals' ... done
	SubspaceRotationAdjust: set factor to 0.878
ElecMinimize: Iter:  39  F: -212.978256039489793  |grad|_K:  1.727e-07  alpha:  5.206e-01  linmin:  5.727e-06  t[s]:     39.51
	FillingsUpdate:  mu: -0.100869081  nElectrons: 45.000000
	SubspaceRotationAdjust: set factor to 0.886
ElecMinimize: Iter:  40  F: -212.978256177607761  |grad|_K:  1.607e-07  alpha:  5.357e-01  linmin: -5.320e-07  t[s]:     40.50
	FillingsUpdate:  mu: -0.100890448  nElectrons: 45.000000
	SubspaceRotationAdjust: set factor to 0.895
ElecMinimize: Iter:  41  F: -212.978256294573583  |grad|_K:  1.455e-07  alpha:  5.239e-01  linmin:  1.399e-06  t[s]:     41.52
	FillingsUpdate:  mu: -0.100896549  nElectrons: 45.000000
	SubspaceRotationAdjust: set factor to 0.895
ElecMinimize: Iter:  42  F: -212.978256386728390  |grad|_K:  1.297e-07  alpha:  5.035e-01  linmin:  2.776e-06  t[s]:     42.51
	FillingsUpdate:  mu: -0.100879792  nElectrons: 45.000000
	SubspaceRotationAdjust: set factor to 0.893
ElecMinimize: Iter:  43  F: -212.978256463707709  |grad|_K:  1.221e-07  alpha:  5.289e-01  linmin: -4.612e-06  t[s]:     43.47
ElecMinimize: Converged (|Delta F|<1.000000e-07 for 2 iters).
Setting wave functions to eigenvectors of Hamiltonian

# Ionic positions in lattice coordinates:
ion Na   0.000000000000000   0.000000000000000   0.370370000000000 1
ion Na   0.500000000000000   0.500000000000000   0.435190000000000 1
ion Na   0.000000000000000   0.000000000000000   0.500000000000000 1
ion Na   0.500000000000000   0.500000000000000   0.564810000000000 1
ion Na   0.000000000000000   0.000000000000000   0.629630000000000 1

# Forces in Lattice coordinates:
force Na   0.000000000000000  -0.000000000000000  -0.012809637316701 1
force Na  -0.000000000000000  -0.000000000000000   0.027194075206066 1
force Na   0.000000000000000  -0.000000000000000   0.000000000000000 1
force Na  -0.000000000000000  -0.000000000000000  -0.027194075206180 1
force Na  -0.000000000000000  -0.000000000000000   0.012809637316701 1

# Energy components:
   Eewald =     -746.1913931499960881
       EH =     -575.8584382598157845
     Eloc =     1096.6093803903077060
      Enl =      -64.6250253661279004
   Epulay =       -0.0000047603478780
      Exc =      -31.2829172531493178
       KE =      108.3909039660941147
-------------------------------------
     Etot =     -212.9574944330350377
       TS =        0.0207620306726831
-------------------------------------
        F =     -212.9782564637077087

IonicMinimize: Iter:   0  F: -212.978256463707709  |grad|_K:  1.793e-04  t[s]:     43.62
IonicMinimize: None of the convergence criteria satisfied after 0 iterations.

#--- Lowdin population analysis ---
# oxidation-state Na +0.073 +0.052 +0.041 +0.052 +0.073


Dumping 'X.fillings' ... done
Dumping 'X.wfns' ... done
Dumping 'X.ionpos' ... done
Dumping 'X.lattice' ... done
Dumping 'X.n' ... done
Dumping 'X.eigenvals' ... done
Dumping 'X.eigStats' ... 
	eMin: -2.062944 at state 0 ( [ +0.000000 +0.000000 +0.000000 ] spin 0 )
	HOMO: -0.102694 at state 9 ( [ +0.090909 +0.363636 +0.000000 ] spin 0 )
	mu  : -0.100880
	LUMO: -0.100580 at state 0 ( [ +0.000000 +0.000000 +0.000000 ] spin 0 )
	eMax: -0.012619 at state 18 ( [ +0.363636 +0.363636 +0.000000 ] spin 0 )
	HOMO-LUMO gap: +0.002115
	Optical gap  : +0.019660 at state 9 ( [ +0.090909 +0.363636 +0.000000 ] spin 0 )
Dumping 'X.dos' ... done.
End date and time: Wed Nov  8 23:13:22 2023  (Duration: 0-0:00:43.79)
Done!

*************** JDFTx 1.7.0  ***************

Start date and time: Wed Nov  8 23:13:24 2023
Executable jdftx with command-line: -m -i X.in -o X.out
Running on hosts (process indices):  ac0170 (0-20)
Divided in process groups (process indices):  0 (0)  1 (1)  2 (2)  3 (3)  4 (4)  5 (5)  6 (6)  7 (7)  8 (8)  9 (9)  10 (10)  11 (11)  12 (12)  13 (13)  14 (14)  15 (15)  16 (16)  17 (17)  18 (18)  19 (19)  20 (20)
Resource initialization completed at t[s]:      0.02
Run totals: 21 processes, 21 threads, 0 GPUs


Input parsed successfully to the following command list (including defaults):

basis kpoint-dependent
cache-projectors no
coords-type Lattice
core-overlap-check vector
coulomb-interaction Slab 001
coulomb-truncation-embed 0 0 0.5
davidson-band-ratio 1.1
density-of-states Etol 1.000000e-06 Esigma 0.000000e+00 \
		Complete \
	Total \
		Occupied \
	Total
dump End State IonicPositions Lattice ElecDensity CoreDensity EigStats DOS
dump Electronic State Forces
dump Ionic State IonicPositions Forces Lattice DOS
dump-interval Electronic 8
dump-interval Ionic 4
dump-name X.$var
elec-cutoff 30
elec-eigen-algo Davidson
elec-ex-corr gga-PBE
elec-smearing Fermi 0.0095
electronic-minimize  \
	dirUpdateScheme      FletcherReeves \
	linminMethod         DirUpdateRecommended \
	nIterations          2000 \
	history              15 \
	knormThreshold       0 \
	energyDiffThreshold  1e-07 \
	nEnergyDiff          2 \
	alphaTstart          1 \
	alphaTmin            1e-10 \
	updateTestStepSize   yes \
	alphaTreduceFactor   0.1 \
	alphaTincreaseFactor 3 \
	nAlphaAdjustMax      3 \
	wolfeEnergy          0.0001 \
	wolfeGradient        0.9 \
	fdTest               no
exchange-regularization WignerSeitzTruncated
fluid None
fluid-ex-corr (null) lda-PZ
fluid-gummel-loop 10 1.000000e-05
fluid-minimize  \
	dirUpdateScheme      PolakRibiere \
	linminMethod         DirUpdateRecommended \
	nIterations          100 \
	history              15 \
	knormThreshold       0 \
	energyDiffThreshold  0 \
	nEnergyDiff          2 \
	alphaTstart          1 \
	alphaTmin            1e-10 \
	updateTestStepSize   yes \
	alphaTreduceFactor   0.1 \
	alphaTincreaseFactor 3 \
	nAlphaAdjustMax      3 \
	wolfeEnergy          0.0001 \
	wolfeGradient        0.9 \
	fdTest               no
fluid-solvent H2O 55.338 ScalarEOS \
	epsBulk 78.4 \
	pMol 0.92466 \
	epsInf 1.77 \
	Pvap 1.06736e-10 \
	sigmaBulk 4.62e-05 \
	Rvdw 2.61727 \
	Res 1.42 \
	tauNuc 343133 \
	poleEl 15 7 1
forces-output-coords Positions
ion Na   0.000000000000000   0.000000000000000   0.370370000000000 1
ion Na   0.500000000000000   0.500000000000000   0.435190000000000 1
ion Na   0.000000000000000   0.000000000000000   0.500000000000000 1
ion Na   0.500000000000000   0.500000000000000   0.564810000000000 1
ion Na   0.000000000000000   0.000000000000000   0.629630000000000 1
ion-species SG15/$ID_ONCV_PBE.upf
ion-width 0
ionic-minimize  \
	dirUpdateScheme      L-BFGS \
	linminMethod         DirUpdateRecommended \
	nIterations          0 \
	history              15 \
	knormThreshold       0.0001 \
	energyDiffThreshold  1e-06 \
	nEnergyDiff          2 \
	alphaTstart          1 \
	alphaTmin            1e-10 \
	updateTestStepSize   yes \
	alphaTreduceFactor   0.1 \
	alphaTincreaseFactor 3 \
	nAlphaAdjustMax      3 \
	wolfeEnergy          0.0001 \
	wolfeGradient        0.9 \
	fdTest               no
kpoint   0.000000000000   0.000000000000   0.000000000000  1.00000000000000
kpoint-folding 11 11 1 
latt-move-scale 1 1 1
latt-scale 1 1 1 
lattice  \
	   7.936714821600003   -0.000000000000000   -0.000000000000000  \
	   0.000000000000000    7.936714821600003   -0.000000000000000  \
	   0.000000000000000    0.000000000000000   61.226874053999992 
lattice-minimize  \
	dirUpdateScheme      L-BFGS \
	linminMethod         DirUpdateRecommended \
	nIterations          0 \
	history              15 \
	knormThreshold       0 \
	energyDiffThreshold  1e-06 \
	nEnergyDiff          2 \
	alphaTstart          1 \
	alphaTmin            1e-10 \
	updateTestStepSize   yes \
	alphaTreduceFactor   0.1 \
	alphaTincreaseFactor 3 \
	nAlphaAdjustMax      3 \
	wolfeEnergy          0.0001 \
	wolfeGradient        0.9 \
	fdTest               no
lcao-params -1 1e-06 0.0095
pcm-variant GLSSA13
spintype no-spin
subspace-rotation-factor 1 yes
symmetries automatic
symmetry-threshold 0.0001
wavefunction read X.wfns 25 20.000000



---------- Setting up symmetries ----------

Found 16 point-group symmetries of the bravais lattice
Found 16 space-group symmetries with basis
Applied RMS atom displacement 0 bohrs to make symmetries exact.

---------- Initializing the Grid ----------
R = 
[      7.93671            0            0  ]
[            0      7.93671            0  ]
[            0            0      61.2269  ]
unit cell volume = 3856.77
G =
[   0.791661          0          0  ]
[         -0   0.791661          0  ]
[          0         -0   0.102621  ]
Minimum fftbox size, Smin = [  40  40  304  ]
Chosen fftbox size, S = [  40  40  320  ]

---------- Exchange Correlation functional ----------
Initalized PBE GGA exchange.
Initalized PBE GGA correlation.

---------- Setting up pseudopotentials ----------
Width of ionic core gaussian charges (only for fluid interactions / plotting) set to 0

Reading pseudopotential file '/net/software/testing/software/jdftx/1.7.0-foss-2021b-mkl/share/jdftx/pseudopotentials/SG15/Na_ONCV_PBE.upf':
  'Na' pseudopotential, 'PBE' functional
  Generated using ONCVPSP code by D. R. Hamann
  Author: Martin Schlipf and Francois Gygi  Date: 150915.
  9 valence electrons, 3 orbitals, 4 projectors, 1992 radial grid points, with lMax = 1
  Transforming local potential to a uniform radial grid of dG=0.02 with 1394 points.
  Transforming nonlocal projectors to a uniform radial grid of dG=0.02 with 528 points.
    2S    l: 0   occupation:  2.0   eigenvalue: -2.085640
    2P    l: 1   occupation:  6.0   eigenvalue: -1.053708
    3S    l: 0   occupation:  1.0   eigenvalue: -0.100838
  Transforming atomic orbitals to a uniform radial grid of dG=0.02 with 528 points.
  Core radius for overlap checks: 2.01 bohrs.
  Reading pulay file /net/software/testing/software/jdftx/1.7.0-foss-2021b-mkl/share/jdftx/pseudopotentials/SG15/Na_ONCV_PBE.pulay ... using dE_dnG = -3.261361e-04 computed for Ecut = 30.

Initialized 1 species with 5 total atoms.

Folded 1 k-points by 11x11x1 to 121 k-points.

---------- Setting up k-points, bands, fillings ----------
Reduced to 21 k-points under symmetry. 
Computing the number of bands and number of electrons
Calculating initial fillings.
nElectrons:  45.000000   nBands: 25   nStates: 21

----- Setting up reduced wavefunction bases (one per k-point) -----
average nbasis = 30273.876 , ideal nbasis = 30269.101

----- Initializing Supercell corresponding to k-point mesh -----
Lattice vector linear combinations in supercell:
[  11   0   0  ]
[   0  11   0  ]
[   0   0   1  ]
Supercell lattice vectors:
[  87.3039  0  0  ]
[  0  87.3039  0  ]
[  0  0  61.2269  ]

---------- Setting up coulomb interaction ----------
Setting up double-sized grid for truncated Coulomb potentials:
R = 
[      7.93671            0            0  ]
[            0      7.93671            0  ]
[            0            0      122.454  ]
unit cell volume = 7713.54
G =
[   0.791661          0          0  ]
[         -0   0.791661          0  ]
[          0         -0  0.0513107  ]
Chosen fftbox size, S = [  40  40  640  ]
Integer grid location selected as the embedding center:
   Grid: [  0  0  160  ]
   Lattice: [  0  0  0.5  ]
   Cartesian: [  0  0  30.6134  ]
Constructing Wigner-Seitz cell: 6 faces (6 quadrilaterals, 0 hexagons)
Range-separation parameter for embedded mesh potentials due to point charges: 0.561954 bohrs.
Initialized slab truncation along lattice direction 001

---------- Setting up 2D ewald sum ----------
Optimum gaussian width for ewald sums = 4.734710 bohr.
Real space sums over 225 unit cells with max indices [  7  7  0  ]
Reciprocal space sums over 81 terms with max indices [  4  4  0  ]

---------- Allocating electronic variables ----------
Initializing wave functions:  reading from 'X.wfns'


---- Citations for features of the code used in this run ----

   Software package:
      R. Sundararaman, K. Letchworth-Weaver, K.A. Schwarz, D. Gunceler, Y. Ozhabes and T.A. Arias, 'JDFTx: software for joint density-functional theory', SoftwareX 6, 278 (2017)

   gga-PBE exchange-correlation functional:
      J.P. Perdew, K. Burke and M. Ernzerhof, Phys. Rev. Lett. 77, 3865 (1996)

   Pseudopotentials:
      M Schlipf and F Gygi, Comput. Phys. Commun. 196, 36 (2015)

   Truncated Coulomb potentials:
      R. Sundararaman and T.A. Arias, Phys. Rev. B 87, 165122 (2013)

   Total energy minimization with Auxiliary Hamiltonian:
      C. Freysoldt, S. Boeck, and J. Neugebauer, Phys. Rev. B 79, 241103(R) (2009)

   Linear-tetrahedron sampling for density of states:
      G. Lehmann and M. Taut, Phys. status solidi (b) 54, 469 (1972)

This list may not be complete. Please suggest additional citations or
report any other bugs at https://github.com/shankar1729/jdftx/issues

Initialization completed successfully at t[s]:      0.53


Setting the auxilliary hamiltonian equal to the subspace hamiltonian.

-------- Electronic minimization -----------
	FillingsUpdate:  mu: -0.141205325  nElectrons: 45.000000
ElecMinimize: Iter:   0  F: -212.974709911730798  |grad|_K:  6.215e-05  alpha:  1.000e+00
	FillingsUpdate:  mu: -0.096878195  nElectrons: 45.000000
	SubspaceRotationAdjust: set factor to 0.5
ElecMinimize: Iter:   1  F: -212.986600032373900  |grad|_K:  1.114e-05  alpha:  2.024e-01  linmin:  2.271e-03  t[s]:      5.48
	FillingsUpdate:  mu: -0.107286669  nElectrons: 45.000000
	SubspaceRotationAdjust: set factor to 0.392
ElecMinimize: Iter:   2  F: -212.987133540792058  |grad|_K:  5.382e-06  alpha:  2.817e-01  linmin:  5.052e-05  t[s]:      7.67
	FillingsUpdate:  mu: -0.102392986  nElectrons: 45.000000
	SubspaceRotationAdjust: set factor to 0.573
ElecMinimize: Iter:   3  F: -212.987413197200169  |grad|_K:  4.233e-06  alpha:  6.077e-01  linmin: -2.036e-05  t[s]:      9.79
	FillingsUpdate:  mu: -0.099546634  nElectrons: 45.000000
	SubspaceRotationAdjust: set factor to 0.73
ElecMinimize: Iter:   4  F: -212.987522514828214  |grad|_K:  1.509e-06  alpha:  3.807e-01  linmin:  1.630e-06  t[s]:     11.86
	FillingsUpdate:  mu: -0.100190980  nElectrons: 45.000000
	SubspaceRotationAdjust: set factor to 1.01
ElecMinimize: Iter:   5  F: -212.987536791509001  |grad|_K:  9.594e-07  alpha:  3.947e-01  linmin:  6.071e-07  t[s]:     13.92
	FillingsUpdate:  mu: -0.100681498  nElectrons: 45.000000
	SubspaceRotationAdjust: set factor to 1.34
ElecMinimize: Iter:   6  F: -212.987544253861302  |grad|_K:  5.689e-07  alpha:  5.100e-01  linmin:  3.923e-06  t[s]:     15.98
	FillingsUpdate:  mu: -0.100522236  nElectrons: 45.000000

Dumping 'X.fillings' ... done
Dumping 'X.wfns' ... done
Dumping 'X.force' ... done
Dumping 'X.eigenvals' ... done
	SubspaceRotationAdjust: set factor to 1.16
ElecMinimize: Iter:   7  F: -212.987545863345986  |grad|_K:  2.274e-07  alpha:  3.130e-01  linmin:  2.232e-07  t[s]:     18.24
	FillingsUpdate:  mu: -0.100732254  nElectrons: 45.000000
	SubspaceRotationAdjust: set factor to 0.88
ElecMinimize: Iter:   8  F: -212.987546137791639  |grad|_K:  1.711e-07  alpha:  3.337e-01  linmin: -2.239e-07  t[s]:     20.30
	FillingsUpdate:  mu: -0.100538703  nElectrons: 45.000000
	SubspaceRotationAdjust: set factor to 0.707
ElecMinimize: Iter:   9  F: -212.987546366759375  |grad|_K:  1.816e-07  alpha:  4.919e-01  linmin:  3.157e-06  t[s]:     22.36
	FillingsUpdate:  mu: -0.100642169  nElectrons: 45.000000
	SubspaceRotationAdjust: set factor to 0.739
ElecMinimize: Iter:  10  F: -212.987546773776074  |grad|_K:  2.225e-07  alpha:  7.762e-01  linmin: -2.245e-06  t[s]:     24.52
	FillingsUpdate:  mu: -0.100836501  nElectrons: 45.000000
	SubspaceRotationAdjust: set factor to 0.776
ElecMinimize: Iter:  11  F: -212.987547188102695  |grad|_K:  1.844e-07  alpha:  5.263e-01  linmin:  5.895e-07  t[s]:     26.71
	FillingsUpdate:  mu: -0.100749945  nElectrons: 45.000000
	SubspaceRotationAdjust: set factor to 0.81
ElecMinimize: Iter:  12  F: -212.987547395602832  |grad|_K:  1.215e-07  alpha:  3.838e-01  linmin:  6.926e-07  t[s]:     28.86
	FillingsUpdate:  mu: -0.100773000  nElectrons: 45.000000
	SubspaceRotationAdjust: set factor to 0.931
ElecMinimize: Iter:  13  F: -212.987547491327888  |grad|_K:  8.648e-08  alpha:  4.077e-01  linmin:  2.271e-07  t[s]:     31.01
	FillingsUpdate:  mu: -0.100859428  nElectrons: 45.000000
	SubspaceRotationAdjust: set factor to 0.84
ElecMinimize: Iter:  14  F: -212.987547547831895  |grad|_K:  7.531e-08  alpha:  4.755e-01  linmin:  2.170e-06  t[s]:     33.16
ElecMinimize: Converged (|Delta F|<1.000000e-07 for 2 iters).
Setting wave functions to eigenvectors of Hamiltonian

# Ionic positions in lattice coordinates:
ion Na   0.000000000000000   0.000000000000000   0.370370000000000 1
ion Na   0.500000000000000   0.500000000000000   0.435190000000000 1
ion Na   0.000000000000000   0.000000000000000   0.500000000000000 1
ion Na   0.500000000000000   0.500000000000000   0.564810000000000 1
ion Na   0.000000000000000   0.000000000000000   0.629630000000000 1

# Forces in Lattice coordinates:
force Na   0.000000000000000   0.000000000000000  -0.042983969626086 1
force Na  -0.000000000000000  -0.000000000000000  -0.007770581485352 1
force Na   0.000000000000000   0.000000000000000   0.000000000000000 1
force Na  -0.000000000000000   0.000000000000000   0.007770581485465 1
force Na   0.000000000000000   0.000000000000000   0.042983969626085 1

# Energy components:
   Eewald =     -746.1913931499960881
       EH =     -575.8116263241421393
     Eloc =     1096.5387489321376506
      Enl =      -64.6461029471750521
   Epulay =        0.0000020190558664
      Exc =      -31.2889387900644032
       KE =      108.4325332309979899
-------------------------------------
     Etot =     -212.9667770291861757
       TS =        0.0207705186457156
-------------------------------------
        F =     -212.9875475478318947

IonicMinimize: Iter:   0  F: -212.987547547831895  |grad|_K:  2.605e-04  t[s]:     33.45
IonicMinimize: None of the convergence criteria satisfied after 0 iterations.

#--- Lowdin population analysis ---
# oxidation-state Na +0.074 +0.052 +0.041 +0.052 +0.074


Dumping 'X.fillings' ... done
Dumping 'X.wfns' ... done
Dumping 'X.ionpos' ... done
Dumping 'X.lattice' ... done
Dumping 'X.n' ... done
Dumping 'X.eigenvals' ... done
Dumping 'X.eigStats' ... 
	eMin: -2.062003 at state 0 ( [ +0.000000 +0.000000 +0.000000 ] spin 0 )
	HOMO: -0.102658 at state 9 ( [ +0.090909 +0.363636 +0.000000 ] spin 0 )
	mu  : -0.100859
	LUMO: -0.100526 at state 0 ( [ +0.000000 +0.000000 +0.000000 ] spin 0 )
	eMax: -0.016531 at state 18 ( [ +0.363636 +0.363636 +0.000000 ] spin 0 )
	HOMO-LUMO gap: +0.002132
	Optical gap  : +0.019620 at state 9 ( [ +0.090909 +0.363636 +0.000000 ] spin 0 )
Dumping 'X.dos' ... done.
End date and time: Wed Nov  8 23:13:57 2023  (Duration: 0-0:00:33.74)
Done!

*************** JDFTx 1.7.0  ***************

Start date and time: Wed Nov  8 23:14:00 2023
Executable jdftx with command-line: -m -i X.in -o X.out
Running on hosts (process indices):  ac0170 (0-20)
Divided in process groups (process indices):  0 (0)  1 (1)  2 (2)  3 (3)  4 (4)  5 (5)  6 (6)  7 (7)  8 (8)  9 (9)  10 (10)  11 (11)  12 (12)  13 (13)  14 (14)  15 (15)  16 (16)  17 (17)  18 (18)  19 (19)  20 (20)
Resource initialization completed at t[s]:      0.02
Run totals: 21 processes, 21 threads, 0 GPUs


Input parsed successfully to the following command list (including defaults):

basis kpoint-dependent
cache-projectors no
coords-type Lattice
core-overlap-check vector
coulomb-interaction Slab 001
coulomb-truncation-embed 0 0 0.5
davidson-band-ratio 1.1
density-of-states Etol 1.000000e-06 Esigma 0.000000e+00 \
		Complete \
	Total \
		Occupied \
	Total
dump End State IonicPositions Lattice ElecDensity CoreDensity EigStats DOS
dump Electronic State Forces
dump Ionic State IonicPositions Forces Lattice DOS
dump-interval Electronic 8
dump-interval Ionic 4
dump-name X.$var
elec-cutoff 40
elec-eigen-algo Davidson
elec-ex-corr gga-PBE
elec-smearing Fermi 0.0095
electronic-minimize  \
	dirUpdateScheme      FletcherReeves \
	linminMethod         DirUpdateRecommended \
	nIterations          2000 \
	history              15 \
	knormThreshold       0 \
	energyDiffThreshold  1e-07 \
	nEnergyDiff          2 \
	alphaTstart          1 \
	alphaTmin            1e-10 \
	updateTestStepSize   yes \
	alphaTreduceFactor   0.1 \
	alphaTincreaseFactor 3 \
	nAlphaAdjustMax      3 \
	wolfeEnergy          0.0001 \
	wolfeGradient        0.9 \
	fdTest               no
exchange-regularization WignerSeitzTruncated
fluid None
fluid-ex-corr (null) lda-PZ
fluid-gummel-loop 10 1.000000e-05
fluid-minimize  \
	dirUpdateScheme      PolakRibiere \
	linminMethod         DirUpdateRecommended \
	nIterations          100 \
	history              15 \
	knormThreshold       0 \
	energyDiffThreshold  0 \
	nEnergyDiff          2 \
	alphaTstart          1 \
	alphaTmin            1e-10 \
	updateTestStepSize   yes \
	alphaTreduceFactor   0.1 \
	alphaTincreaseFactor 3 \
	nAlphaAdjustMax      3 \
	wolfeEnergy          0.0001 \
	wolfeGradient        0.9 \
	fdTest               no
fluid-solvent H2O 55.338 ScalarEOS \
	epsBulk 78.4 \
	pMol 0.92466 \
	epsInf 1.77 \
	Pvap 1.06736e-10 \
	sigmaBulk 4.62e-05 \
	Rvdw 2.61727 \
	Res 1.42 \
	tauNuc 343133 \
	poleEl 15 7 1
forces-output-coords Positions
ion Na   0.000000000000000   0.000000000000000   0.370370000000000 1
ion Na   0.500000000000000   0.500000000000000   0.435190000000000 1
ion Na   0.000000000000000   0.000000000000000   0.500000000000000 1
ion Na   0.500000000000000   0.500000000000000   0.564810000000000 1
ion Na   0.000000000000000   0.000000000000000   0.629630000000000 1
ion-species SG15/$ID_ONCV_PBE.upf
ion-width 0
ionic-minimize  \
	dirUpdateScheme      L-BFGS \
	linminMethod         DirUpdateRecommended \
	nIterations          0 \
	history              15 \
	knormThreshold       0.0001 \
	energyDiffThreshold  1e-06 \
	nEnergyDiff          2 \
	alphaTstart          1 \
	alphaTmin            1e-10 \
	updateTestStepSize   yes \
	alphaTreduceFactor   0.1 \
	alphaTincreaseFactor 3 \
	nAlphaAdjustMax      3 \
	wolfeEnergy          0.0001 \
	wolfeGradient        0.9 \
	fdTest               no
kpoint   0.000000000000   0.000000000000   0.000000000000  1.00000000000000
kpoint-folding 11 11 1 
latt-move-scale 1 1 1
latt-scale 1 1 1 
lattice  \
	   7.936714821600003   -0.000000000000000   -0.000000000000000  \
	   0.000000000000000    7.936714821600003   -0.000000000000000  \
	   0.000000000000000    0.000000000000000   61.226874053999992 
lattice-minimize  \
	dirUpdateScheme      L-BFGS \
	linminMethod         DirUpdateRecommended \
	nIterations          0 \
	history              15 \
	knormThreshold       0 \
	energyDiffThreshold  1e-06 \
	nEnergyDiff          2 \
	alphaTstart          1 \
	alphaTmin            1e-10 \
	updateTestStepSize   yes \
	alphaTreduceFactor   0.1 \
	alphaTincreaseFactor 3 \
	nAlphaAdjustMax      3 \
	wolfeEnergy          0.0001 \
	wolfeGradient        0.9 \
	fdTest               no
lcao-params -1 1e-06 0.0095
pcm-variant GLSSA13
spintype no-spin
subspace-rotation-factor 1 yes
symmetries automatic
symmetry-threshold 0.0001
wavefunction read X.wfns 25 30.000000



---------- Setting up symmetries ----------

Found 16 point-group symmetries of the bravais lattice
Found 16 space-group symmetries with basis
Applied RMS atom displacement 0 bohrs to make symmetries exact.

---------- Initializing the Grid ----------
R = 
[      7.93671            0            0  ]
[            0      7.93671            0  ]
[            0            0      61.2269  ]
unit cell volume = 3856.77
G =
[   0.791661          0          0  ]
[         -0   0.791661          0  ]
[          0         -0   0.102621  ]
Minimum fftbox size, Smin = [  48  48  352  ]
Chosen fftbox size, S = [  48  48  360  ]

---------- Exchange Correlation functional ----------
Initalized PBE GGA exchange.
Initalized PBE GGA correlation.

---------- Setting up pseudopotentials ----------
Width of ionic core gaussian charges (only for fluid interactions / plotting) set to 0

Reading pseudopotential file '/net/software/testing/software/jdftx/1.7.0-foss-2021b-mkl/share/jdftx/pseudopotentials/SG15/Na_ONCV_PBE.upf':
  'Na' pseudopotential, 'PBE' functional
  Generated using ONCVPSP code by D. R. Hamann
  Author: Martin Schlipf and Francois Gygi  Date: 150915.
  9 valence electrons, 3 orbitals, 4 projectors, 1992 radial grid points, with lMax = 1
  Transforming local potential to a uniform radial grid of dG=0.02 with 1636 points.
  Transforming nonlocal projectors to a uniform radial grid of dG=0.02 with 609 points.
    2S    l: 0   occupation:  2.0   eigenvalue: -2.085640
    2P    l: 1   occupation:  6.0   eigenvalue: -1.053708
    3S    l: 0   occupation:  1.0   eigenvalue: -0.100838
  Transforming atomic orbitals to a uniform radial grid of dG=0.02 with 609 points.
  Core radius for overlap checks: 2.01 bohrs.
  Reading pulay file /net/software/testing/software/jdftx/1.7.0-foss-2021b-mkl/share/jdftx/pseudopotentials/SG15/Na_ONCV_PBE.pulay ... using dE_dnG = -6.648380e-05 computed for Ecut = 40.

Initialized 1 species with 5 total atoms.

Folded 1 k-points by 11x11x1 to 121 k-points.

---------- Setting up k-points, bands, fillings ----------
Reduced to 21 k-points under symmetry. 
Computing the number of bands and number of electrons
Calculating initial fillings.
nElectrons:  45.000000   nBands: 25   nStates: 21

----- Setting up reduced wavefunction bases (one per k-point) -----
average nbasis = 46603.992 , ideal nbasis = 46602.329

----- Initializing Supercell corresponding to k-point mesh -----
Lattice vector linear combinations in supercell:
[  11   0   0  ]
[   0  11   0  ]
[   0   0   1  ]
Supercell lattice vectors:
[  87.3039  0  0  ]
[  0  87.3039  0  ]
[  0  0  61.2269  ]

---------- Setting up coulomb interaction ----------
Setting up double-sized grid for truncated Coulomb potentials:
R = 
[      7.93671            0            0  ]
[            0      7.93671            0  ]
[            0            0      122.454  ]
unit cell volume = 7713.54
G =
[   0.791661          0          0  ]
[         -0   0.791661          0  ]
[          0         -0  0.0513107  ]
Chosen fftbox size, S = [  48  48  720  ]
Integer grid location selected as the embedding center:
   Grid: [  0  0  180  ]
   Lattice: [  0  0  0.5  ]
   Cartesian: [  0  0  30.6134  ]
Constructing Wigner-Seitz cell: 6 faces (6 quadrilaterals, 0 hexagons)
Range-separation parameter for embedded mesh potentials due to point charges: 0.520271 bohrs.
Initialized slab truncation along lattice direction 001

---------- Setting up 2D ewald sum ----------
Optimum gaussian width for ewald sums = 4.734710 bohr.
Real space sums over 225 unit cells with max indices [  7  7  0  ]
Reciprocal space sums over 81 terms with max indices [  4  4  0  ]

---------- Allocating electronic variables ----------
Initializing wave functions:  reading from 'X.wfns'


---- Citations for features of the code used in this run ----

   Software package:
      R. Sundararaman, K. Letchworth-Weaver, K.A. Schwarz, D. Gunceler, Y. Ozhabes and T.A. Arias, 'JDFTx: software for joint density-functional theory', SoftwareX 6, 278 (2017)

   gga-PBE exchange-correlation functional:
      J.P. Perdew, K. Burke and M. Ernzerhof, Phys. Rev. Lett. 77, 3865 (1996)

   Pseudopotentials:
      M Schlipf and F Gygi, Comput. Phys. Commun. 196, 36 (2015)

   Truncated Coulomb potentials:
      R. Sundararaman and T.A. Arias, Phys. Rev. B 87, 165122 (2013)

   Total energy minimization with Auxiliary Hamiltonian:
      C. Freysoldt, S. Boeck, and J. Neugebauer, Phys. Rev. B 79, 241103(R) (2009)

   Linear-tetrahedron sampling for density of states:
      G. Lehmann and M. Taut, Phys. status solidi (b) 54, 469 (1972)

This list may not be complete. Please suggest additional citations or
report any other bugs at https://github.com/shankar1729/jdftx/issues

Initialization completed successfully at t[s]:      0.82


Setting the auxilliary hamiltonian equal to the subspace hamiltonian.

-------- Electronic minimization -----------
	FillingsUpdate:  mu: -0.141231792  nElectrons: 45.000000
ElecMinimize: Iter:   0  F: -212.983990484418882  |grad|_K:  3.725e-05  alpha:  1.000e+00
	FillingsUpdate:  mu: -0.096391908  nElectrons: 45.000000
	SubspaceRotationAdjust: set factor to 0.483
ElecMinimize: Iter:   1  F: -212.990345009796130  |grad|_K:  8.864e-06  alpha:  2.038e-01  linmin:  2.956e-03  t[s]:      9.28
	FillingsUpdate:  mu: -0.106752559  nElectrons: 45.000000
	SubspaceRotationAdjust: set factor to 0.452
ElecMinimize: Iter:   2  F: -212.990885940503659  |grad|_K:  4.428e-06  alpha:  3.043e-01  linmin:  3.661e-05  t[s]:     13.06
	FillingsUpdate:  mu: -0.103045303  nElectrons: 45.000000
	SubspaceRotationAdjust: set factor to 0.698
ElecMinimize: Iter:   3  F: -212.991137863483971  |grad|_K:  3.282e-06  alpha:  5.271e-01  linmin: -1.095e-05  t[s]:     16.84
	FillingsUpdate:  mu: -0.099270882  nElectrons: 45.000000
	SubspaceRotationAdjust: set factor to 0.809
ElecMinimize: Iter:   4  F: -212.991249521526214  |grad|_K:  1.328e-06  alpha:  4.217e-01  linmin: -5.475e-06  t[s]:     20.64
	FillingsUpdate:  mu: -0.100404820  nElectrons: 45.000000
	SubspaceRotationAdjust: set factor to 1.09
ElecMinimize: Iter:   5  F: -212.991265596438865  |grad|_K:  7.613e-07  alpha:  3.717e-01  linmin:  5.566e-07  t[s]:     24.39
	FillingsUpdate:  mu: -0.100513239  nElectrons: 45.000000
	SubspaceRotationAdjust: set factor to 1.53
ElecMinimize: Iter:   6  F: -212.991272161857552  |grad|_K:  4.096e-07  alpha:  4.630e-01  linmin:  1.183e-06  t[s]:     28.13
	FillingsUpdate:  mu: -0.100527479  nElectrons: 45.000000

Dumping 'X.fillings' ... done
Dumping 'X.wfns' ... done
Dumping 'X.force' ... done
Dumping 'X.eigenvals' ... done
	SubspaceRotationAdjust: set factor to 1.63
ElecMinimize: Iter:   7  F: -212.991273464085964  |grad|_K:  1.515e-07  alpha:  3.172e-01  linmin:  4.744e-07  t[s]:     32.12
	FillingsUpdate:  mu: -0.100686588  nElectrons: 45.000000
	SubspaceRotationAdjust: set factor to 1.48
ElecMinimize: Iter:   8  F: -212.991273700256443  |grad|_K:  1.498e-07  alpha:  4.202e-01  linmin: -6.043e-06  t[s]:     35.86
	FillingsUpdate:  mu: -0.100434370  nElectrons: 45.000000
	SubspaceRotationAdjust: set factor to 1.11
ElecMinimize: Iter:   9  F: -212.991273948285937  |grad|_K:  2.064e-07  alpha:  4.514e-01  linmin: -4.609e-07  t[s]:     39.65
	FillingsUpdate:  mu: -0.100709929  nElectrons: 45.000000
	SubspaceRotationAdjust: set factor to 1.04
ElecMinimize: Iter:  10  F: -212.991274485394598  |grad|_K:  1.889e-07  alpha:  5.154e-01  linmin:  1.029e-06  t[s]:     43.39
	FillingsUpdate:  mu: -0.100835150  nElectrons: 45.000000
	SubspaceRotationAdjust: set factor to 1.31
ElecMinimize: Iter:  11  F: -212.991274899201329  |grad|_K:  1.607e-07  alpha:  4.737e-01  linmin:  8.624e-07  t[s]:     47.12
	FillingsUpdate:  mu: -0.100691464  nElectrons: 45.000000
	SubspaceRotationAdjust: set factor to 1.04
ElecMinimize: Iter:  12  F: -212.991275126559486  |grad|_K:  1.178e-07  alpha:  3.598e-01  linmin: -2.987e-07  t[s]:     50.89
	FillingsUpdate:  mu: -0.100848976  nElectrons: 45.000000
	SubspaceRotationAdjust: set factor to 0.705
ElecMinimize: Iter:  13  F: -212.991275226148417  |grad|_K:  6.942e-08  alpha:  2.932e-01  linmin: -1.412e-06  t[s]:     54.63
	FillingsUpdate:  mu: -0.100822737  nElectrons: 45.000000
	SubspaceRotationAdjust: set factor to 0.701
ElecMinimize: Iter:  14  F: -212.991275283691039  |grad|_K:  7.272e-08  alpha:  4.870e-01  linmin: -7.995e-06  t[s]:     58.35
ElecMinimize: Converged (|Delta F|<1.000000e-07 for 2 iters).
Setting wave functions to eigenvectors of Hamiltonian

# Ionic positions in lattice coordinates:
ion Na   0.000000000000000   0.000000000000000   0.370370000000000 1
ion Na   0.500000000000000   0.500000000000000   0.435190000000000 1
ion Na   0.000000000000000   0.000000000000000   0.500000000000000 1
ion Na   0.500000000000000   0.500000000000000   0.564810000000000 1
ion Na   0.000000000000000   0.000000000000000   0.629630000000000 1

# Forces in Lattice coordinates:
force Na  -0.000000000000000  -0.000000000000000  -0.023338544688742 1
force Na   0.000000000000000  -0.000000000000000   0.014389333617154 1
force Na   0.000000000000000  -0.000000000000000   0.000000000000000 1
force Na   0.000000000000000  -0.000000000000000  -0.014389333617040 1
force Na  -0.000000000000000  -0.000000000000000   0.023338544688969 1

# Energy components:
   Eewald =     -746.1913931499960881
       EH =     -575.8056697163387980
     Eloc =     1096.5310088637129411
      Enl =      -64.6513080441397108
   Epulay =        0.0000001432978047
      Exc =      -31.2892378549030212
       KE =      108.4360947881117170
-------------------------------------
     Etot =     -212.9705049702552344
       TS =        0.0207703134358103
-------------------------------------
        F =     -212.9912752836910386

IonicMinimize: Iter:   0  F: -212.991275283691039  |grad|_K:  1.635e-04  t[s]:     58.80
IonicMinimize: None of the convergence criteria satisfied after 0 iterations.

#--- Lowdin population analysis ---
# oxidation-state Na +0.074 +0.052 +0.041 +0.052 +0.074


Dumping 'X.fillings' ... done
Dumping 'X.wfns' ... done
Dumping 'X.ionpos' ... done
Dumping 'X.lattice' ... done
Dumping 'X.n' ... done
Dumping 'X.eigenvals' ... done
Dumping 'X.eigStats' ... 
	eMin: -2.062209 at state 0 ( [ +0.000000 +0.000000 +0.000000 ] spin 0 )
	HOMO: -0.102627 at state 9 ( [ +0.090909 +0.363636 +0.000000 ] spin 0 )
	mu  : -0.100823
	LUMO: -0.100495 at state 0 ( [ +0.000000 +0.000000 +0.000000 ] spin 0 )
	eMax: -0.020176 at state 15 ( [ +0.272727 +0.272727 +0.000000 ] spin 0 )
	HOMO-LUMO gap: +0.002131
	Optical gap  : +0.019641 at state 9 ( [ +0.090909 +0.363636 +0.000000 ] spin 0 )
Dumping 'X.dos' ... done.
End date and time: Wed Nov  8 23:14:59 2023  (Duration: 0-0:00:59.19)
Done!

*************** JDFTx 1.7.0  ***************

Start date and time: Wed Nov  8 23:15:01 2023
Executable jdftx with command-line: -m -i X.in -o X.out
Running on hosts (process indices):  ac0170 (0-20)
Divided in process groups (process indices):  0 (0)  1 (1)  2 (2)  3 (3)  4 (4)  5 (5)  6 (6)  7 (7)  8 (8)  9 (9)  10 (10)  11 (11)  12 (12)  13 (13)  14 (14)  15 (15)  16 (16)  17 (17)  18 (18)  19 (19)  20 (20)
Resource initialization completed at t[s]:      0.03
Run totals: 21 processes, 21 threads, 0 GPUs


Input parsed successfully to the following command list (including defaults):

basis kpoint-dependent
cache-projectors no
coords-type Lattice
core-overlap-check vector
coulomb-interaction Slab 001
coulomb-truncation-embed 0 0 0.5
davidson-band-ratio 1.1
density-of-states Etol 1.000000e-06 Esigma 0.000000e+00 \
		Complete \
	Total \
		Occupied \
	Total
dump End State IonicPositions Lattice ElecDensity CoreDensity EigStats DOS
dump Electronic State Forces
dump Ionic State IonicPositions Forces Lattice DOS
dump-interval Electronic 8
dump-interval Ionic 4
dump-name X.$var
elec-cutoff 50
elec-eigen-algo Davidson
elec-ex-corr gga-PBE
elec-smearing Fermi 0.0095
electronic-minimize  \
	dirUpdateScheme      FletcherReeves \
	linminMethod         DirUpdateRecommended \
	nIterations          2000 \
	history              15 \
	knormThreshold       0 \
	energyDiffThreshold  1e-07 \
	nEnergyDiff          2 \
	alphaTstart          1 \
	alphaTmin            1e-10 \
	updateTestStepSize   yes \
	alphaTreduceFactor   0.1 \
	alphaTincreaseFactor 3 \
	nAlphaAdjustMax      3 \
	wolfeEnergy          0.0001 \
	wolfeGradient        0.9 \
	fdTest               no
exchange-regularization WignerSeitzTruncated
fluid None
fluid-ex-corr (null) lda-PZ
fluid-gummel-loop 10 1.000000e-05
fluid-minimize  \
	dirUpdateScheme      PolakRibiere \
	linminMethod         DirUpdateRecommended \
	nIterations          100 \
	history              15 \
	knormThreshold       0 \
	energyDiffThreshold  0 \
	nEnergyDiff          2 \
	alphaTstart          1 \
	alphaTmin            1e-10 \
	updateTestStepSize   yes \
	alphaTreduceFactor   0.1 \
	alphaTincreaseFactor 3 \
	nAlphaAdjustMax      3 \
	wolfeEnergy          0.0001 \
	wolfeGradient        0.9 \
	fdTest               no
fluid-solvent H2O 55.338 ScalarEOS \
	epsBulk 78.4 \
	pMol 0.92466 \
	epsInf 1.77 \
	Pvap 1.06736e-10 \
	sigmaBulk 4.62e-05 \
	Rvdw 2.61727 \
	Res 1.42 \
	tauNuc 343133 \
	poleEl 15 7 1
forces-output-coords Positions
ion Na   0.000000000000000   0.000000000000000   0.370370000000000 1
ion Na   0.500000000000000   0.500000000000000   0.435190000000000 1
ion Na   0.000000000000000   0.000000000000000   0.500000000000000 1
ion Na   0.500000000000000   0.500000000000000   0.564810000000000 1
ion Na   0.000000000000000   0.000000000000000   0.629630000000000 1
ion-species SG15/$ID_ONCV_PBE.upf
ion-width 0
ionic-minimize  \
	dirUpdateScheme      L-BFGS \
	linminMethod         DirUpdateRecommended \
	nIterations          200 \
	history              15 \
	knormThreshold       0.0001 \
	energyDiffThreshold  1e-06 \
	nEnergyDiff          2 \
	alphaTstart          1 \
	alphaTmin            1e-10 \
	updateTestStepSize   yes \
	alphaTreduceFactor   0.1 \
	alphaTincreaseFactor 3 \
	nAlphaAdjustMax      3 \
	wolfeEnergy          0.0001 \
	wolfeGradient        0.9 \
	fdTest               no
kpoint   0.000000000000   0.000000000000   0.000000000000  1.00000000000000
kpoint-folding 11 11 1 
latt-move-scale 1 1 1
latt-scale 1 1 1 
lattice  \
	   7.936714821600003   -0.000000000000000   -0.000000000000000  \
	   0.000000000000000    7.936714821600003   -0.000000000000000  \
	   0.000000000000000    0.000000000000000   61.226874053999992 
lattice-minimize  \
	dirUpdateScheme      L-BFGS \
	linminMethod         DirUpdateRecommended \
	nIterations          0 \
	history              15 \
	knormThreshold       0 \
	energyDiffThreshold  1e-06 \
	nEnergyDiff          2 \
	alphaTstart          1 \
	alphaTmin            1e-10 \
	updateTestStepSize   yes \
	alphaTreduceFactor   0.1 \
	alphaTincreaseFactor 3 \
	nAlphaAdjustMax      3 \
	wolfeEnergy          0.0001 \
	wolfeGradient        0.9 \
	fdTest               no
lcao-params -1 1e-06 0.0095
pcm-variant GLSSA13
spintype no-spin
subspace-rotation-factor 1 yes
symmetries automatic
symmetry-threshold 0.0001
wavefunction read X.wfns 25 40.000000



---------- Setting up symmetries ----------

Found 16 point-group symmetries of the bravais lattice
Found 16 space-group symmetries with basis
Applied RMS atom displacement 0 bohrs to make symmetries exact.

---------- Initializing the Grid ----------
R = 
[      7.93671            0            0  ]
[            0      7.93671            0  ]
[            0            0      61.2269  ]
unit cell volume = 3856.77
G =
[   0.791661          0          0  ]
[         -0   0.791661          0  ]
[          0         -0   0.102621  ]
Minimum fftbox size, Smin = [  52  52  392  ]
Chosen fftbox size, S = [  54  54  392  ]

---------- Exchange Correlation functional ----------
Initalized PBE GGA exchange.
Initalized PBE GGA correlation.

---------- Setting up pseudopotentials ----------
Width of ionic core gaussian charges (only for fluid interactions / plotting) set to 0

Reading pseudopotential file '/net/software/testing/software/jdftx/1.7.0-foss-2021b-mkl/share/jdftx/pseudopotentials/SG15/Na_ONCV_PBE.upf':
  'Na' pseudopotential, 'PBE' functional
  Generated using ONCVPSP code by D. R. Hamann
  Author: Martin Schlipf and Francois Gygi  Date: 150915.
  9 valence electrons, 3 orbitals, 4 projectors, 1992 radial grid points, with lMax = 1
  Transforming local potential to a uniform radial grid of dG=0.02 with 1821 points.
  Transforming nonlocal projectors to a uniform radial grid of dG=0.02 with 680 points.
    2S    l: 0   occupation:  2.0   eigenvalue: -2.085640
[...]
ion Na   0.500000000000000   0.500000000000000   0.564368328375957 1
ion Na   0.000000000000000   0.000000000000000   0.629751331871827 1

# Forces in Lattice coordinates:
force Na   0.000000000000000   0.000000000000000   0.010716985438299 1
force Na   0.000000000000000  -0.000000000000000   0.010698560046478 1
force Na   0.000000000000000   0.000000000000000   0.000000000000000 1
force Na   0.000000000000000  -0.000000000000000  -0.010698560046478 1
force Na   0.000000000000000  -0.000000000000000  -0.010716985438981 1

# Energy components:
   Eewald =     -745.7814073279840841
       EH =     -575.1605419878411567
     Eloc =     1095.4745139921933514
      Enl =      -64.6479711236825096
   Epulay =       -0.0000000018809979
      Exc =      -31.2904247798496087
       KE =      108.4245410768708382
-------------------------------------
     Etot =     -212.9812901521741821
       TS =        0.0002078796124941
-------------------------------------
        F =     -212.9814980317866855

IonicMinimize: Iter:   4  F: -212.981498031786685  |grad|_K:  9.031e-05  alpha:  1.000e+00  linmin: -6.389e-01  t[s]:    403.32

#--- Lowdin population analysis ---
# oxidation-state Na +0.044 +0.065 +0.014 +0.065 +0.044


-------- Electronic minimization -----------
	FillingsUpdate:  mu: -0.254382393  nElectrons: 45.000000
ElecMinimize: Iter:   0  F: -211.851240349876292  |grad|_K:  3.882e-04  alpha:  1.000e+00
	FillingsUpdate:  mu: +0.060394070  nElectrons: 45.000000
	SubspaceRotationAdjust: set factor to 0.795
ElecMinimize: Iter:   1  F: -212.868500193835359  |grad|_K:  1.218e-04  alpha:  2.540e-01  linmin:  2.168e-02  t[s]:    411.34
	FillingsUpdate:  mu: -0.122656679  nElectrons: 45.000000
	SubspaceRotationAdjust: set factor to 0.34
ElecMinimize: Iter:   2  F: -212.969591898314007  |grad|_K:  3.235e-05  alpha:  2.533e-01  linmin:  1.749e-03  t[s]:    415.86
	FillingsUpdate:  mu: -0.094157324  nElectrons: 45.000000
	SubspaceRotationAdjust: set factor to 0.479
ElecMinimize: Iter:   3  F: -212.979186295807040  |grad|_K:  1.202e-05  alpha:  2.791e-01  linmin: -3.218e-04  t[s]:    420.56
	FillingsUpdate:  mu: -0.084646723  nElectrons: 45.000000
	SubspaceRotationAdjust: set factor to 0.476
ElecMinimize: Iter:   4  F: -212.980842920275137  |grad|_K:  5.451e-06  alpha:  3.332e-01  linmin:  1.695e-04  t[s]:    425.28
	FillingsUpdate:  mu: -0.091254446  nElectrons: 45.000000
	SubspaceRotationAdjust: set factor to 0.666
ElecMinimize: Iter:   5  F: -212.981327434605504  |grad|_K:  3.059e-06  alpha:  4.794e-01  linmin:  8.136e-05  t[s]:    429.98
	FillingsUpdate:  mu: -0.094238938  nElectrons: 45.000000
	SubspaceRotationAdjust: set factor to 0.872
ElecMinimize: Iter:   6  F: -212.981442432882602  |grad|_K:  1.625e-06  alpha:  3.605e-01  linmin:  1.577e-05  t[s]:    434.65
	FillingsUpdate:  mu: -0.094569727  nElectrons: 45.000000

Dumping 'X.fillings' ... done
Dumping 'X.wfns' ... done
Dumping 'X.ionpos' ... done
Dumping 'X.force' ... done
Dumping 'X.eigenvals' ... done
	SubspaceRotationAdjust: set factor to 1.09
ElecMinimize: Iter:   7  F: -212.981484568749067  |grad|_K:  1.031e-06  alpha:  4.672e-01  linmin:  6.188e-06  t[s]:    439.78
	FillingsUpdate:  mu: -0.094963314  nElectrons: 45.000000
	SubspaceRotationAdjust: set factor to 1.22
ElecMinimize: Iter:   8  F: -212.981498012122785  |grad|_K:  6.218e-07  alpha:  3.699e-01  linmin:  5.192e-07  t[s]:    444.53
	FillingsUpdate:  mu: -0.095038247  nElectrons: 45.000000
	SubspaceRotationAdjust: set factor to 1.38
ElecMinimize: Iter:   9  F: -212.981503334226574  |grad|_K:  4.283e-07  alpha:  4.025e-01  linmin: -4.792e-07  t[s]:    449.26
	FillingsUpdate:  mu: -0.094627359  nElectrons: 45.000000
	SubspaceRotationAdjust: set factor to 1.36
ElecMinimize: Iter:  10  F: -212.981505922507779  |grad|_K:  3.063e-07  alpha:  4.125e-01  linmin:  7.279e-07  t[s]:    454.00
	FillingsUpdate:  mu: -0.094640432  nElectrons: 45.000000
	SubspaceRotationAdjust: set factor to 1.39
ElecMinimize: Iter:  11  F: -212.981507357435788  |grad|_K:  2.690e-07  alpha:  4.473e-01  linmin: -2.580e-06  t[s]:    458.74
	FillingsUpdate:  mu: -0.094226915  nElectrons: 45.000000
	SubspaceRotationAdjust: set factor to 1.33
ElecMinimize: Iter:  12  F: -212.981508651738039  |grad|_K:  2.834e-07  alpha:  5.229e-01  linmin: -1.116e-07  t[s]:    463.48
	FillingsUpdate:  mu: -0.094548364  nElectrons: 45.000000
	SubspaceRotationAdjust: set factor to 0.999
ElecMinimize: Iter:  13  F: -212.981509708205323  |grad|_K:  2.189e-07  alpha:  3.848e-01  linmin: -5.032e-07  t[s]:    468.27
	FillingsUpdate:  mu: -0.094336352  nElectrons: 45.000000
	SubspaceRotationAdjust: set factor to 0.97
ElecMinimize: Iter:  14  F: -212.981510395296596  |grad|_K:  1.695e-07  alpha:  4.192e-01  linmin: -1.310e-06  t[s]:    473.00
	FillingsUpdate:  mu: -0.094255917  nElectrons: 45.000000

Dumping 'X.fillings' ... done
Dumping 'X.wfns' ... done
Dumping 'X.ionpos' ... done
Dumping 'X.force' ... done
Dumping 'X.eigenvals' ... done
	SubspaceRotationAdjust: set factor to 1.17
ElecMinimize: Iter:  15  F: -212.981510892186577  |grad|_K:  1.456e-07  alpha:  5.056e-01  linmin:  1.564e-06  t[s]:    479.33
	FillingsUpdate:  mu: -0.094272279  nElectrons: 45.000000
	SubspaceRotationAdjust: set factor to 1.13
ElecMinimize: Iter:  16  F: -212.981511215100682  |grad|_K:  1.131e-07  alpha:  4.453e-01  linmin:  7.806e-08  t[s]:    484.05
	FillingsUpdate:  mu: -0.094127972  nElectrons: 45.000000
	SubspaceRotationAdjust: set factor to 1
ElecMinimize: Iter:  17  F: -212.981511398752104  |grad|_K:  8.772e-08  alpha:  4.197e-01  linmin:  1.295e-07  t[s]:    488.81
	FillingsUpdate:  mu: -0.094146170  nElectrons: 45.000000
	SubspaceRotationAdjust: set factor to 1.02
ElecMinimize: Iter:  18  F: -212.981511521448823  |grad|_K:  6.941e-08  alpha:  4.663e-01  linmin:  1.965e-06  t[s]:    493.55
	FillingsUpdate:  mu: -0.094118353  nElectrons: 45.000000
	SubspaceRotationAdjust: set factor to 1.12
ElecMinimize: Iter:  19  F: -212.981511599865769  |grad|_K:  5.555e-08  alpha:  4.761e-01  linmin:  1.168e-06  t[s]:    498.32
	FillingsUpdate:  mu: -0.094099325  nElectrons: 45.000000
	SubspaceRotationAdjust: set factor to 1.18
ElecMinimize: Iter:  20  F: -212.981511646240364  |grad|_K:  4.304e-08  alpha:  4.392e-01  linmin:  1.517e-06  t[s]:    503.06
	FillingsUpdate:  mu: -0.094115347  nElectrons: 45.000000
	SubspaceRotationAdjust: set factor to 1.12
ElecMinimize: Iter:  21  F: -212.981511672249155  |grad|_K:  3.195e-08  alpha:  4.102e-01  linmin: -3.950e-06  t[s]:    507.81
	FillingsUpdate:  mu: -0.094087757  nElectrons: 45.000000
	SubspaceRotationAdjust: set factor to 1.07
ElecMinimize: Iter:  22  F: -212.981511687591251  |grad|_K:  2.542e-08  alpha:  4.378e-01  linmin: -1.550e-05  t[s]:    512.56
	FillingsUpdate:  mu: -0.094096306  nElectrons: 45.000000

Dumping 'X.fillings' ... done
Dumping 'X.wfns' ... done
Dumping 'X.ionpos' ... done
Dumping 'X.force' ... done
Dumping 'X.eigenvals' ... done
	SubspaceRotationAdjust: set factor to 1.09
ElecMinimize: Iter:  23  F: -212.981511698020569  |grad|_K:  2.065e-08  alpha:  4.698e-01  linmin:  7.264e-06  t[s]:    517.71
	FillingsUpdate:  mu: -0.094090979  nElectrons: 45.000000
	SubspaceRotationAdjust: set factor to 1.16
ElecMinimize: Iter:  24  F: -212.981511704568732  |grad|_K:  1.637e-08  alpha:  4.490e-01  linmin: -1.908e-05  t[s]:    522.45
	FillingsUpdate:  mu: -0.094086068  nElectrons: 45.000000
	SubspaceRotationAdjust: set factor to 1.15
ElecMinimize: Iter:  25  F: -212.981511708608764  |grad|_K:  1.263e-08  alpha:  4.374e-01  linmin:  3.407e-07  t[s]:    527.18
ElecMinimize: Converged (|Delta F|<1.000000e-08 for 2 iters).
Setting wave functions to eigenvectors of Hamiltonian
Converging empty states (this may take a while): |deigs|: 2.829e-06

# Ionic positions in lattice coordinates:
ion Na   0.000000000000000   0.000000000000000   0.371881937857276 1
ion Na   0.500000000000000   0.500000000000000   0.436067172289700 1
ion Na   0.000000000000000   0.000000000000000   0.500000000000000 1
ion Na   0.500000000000000   0.500000000000000   0.563932827710300 1
ion Na   0.000000000000000   0.000000000000000   0.628118062142724 1

# Forces in Lattice coordinates:
force Na  -0.000000000000000  -0.000000000000000  -0.008241751204815 1
force Na  -0.000000000000000   0.000000000000000   0.016146258712906 1
force Na   0.000000000000000   0.000000000000000   0.000000000000000 1
force Na  -0.000000000000000  -0.000000000000000  -0.016146258712906 1
force Na  -0.000000000000000  -0.000000000000000   0.008241751204815 1

# Energy components:
   Eewald =     -738.6431377721811486
       EH =     -568.0028337072385511
     Eloc =     1081.1754404044584135
      Enl =      -64.6486121463844938
   Epulay =       -0.0000000018809979
      Exc =      -31.2937606356278835
       KE =      108.4316129660650887
-------------------------------------
     Etot =     -212.9812908927895023
       TS =        0.0002208158192540
-------------------------------------
        F =     -212.9815117086087639

IonicMinimize: Iter:   5  F: -212.981511708608764  |grad|_K:  1.081e-04  alpha:  8.985e-01  linmin:  2.098e-01  t[s]:    532.95

#--- Lowdin population analysis ---
# oxidation-state Na +0.044 +0.065 +0.015 +0.065 +0.044


-------- Electronic minimization -----------
	FillingsUpdate:  mu: -0.093935553  nElectrons: 45.000000
ElecMinimize: Iter:   0  F: -212.981466146156919  |grad|_K:  2.220e-06  alpha:  1.000e+00
	FillingsUpdate:  mu: -0.093519229  nElectrons: 45.000000
	SubspaceRotationAdjust: set factor to 1.11
ElecMinimize: Iter:   1  F: -212.981514640713982  |grad|_K:  5.350e-07  alpha:  2.874e-01  linmin: -3.110e-04  t[s]:    541.22
	FillingsUpdate:  mu: -0.094337637  nElectrons: 45.000000
	SubspaceRotationAdjust: set factor to 0.754
ElecMinimize: Iter:   2  F: -212.981517686766921  |grad|_K:  2.974e-07  alpha:  3.109e-01  linmin: -1.231e-05  t[s]:    545.96
	FillingsUpdate:  mu: -0.094025639  nElectrons: 45.000000
	SubspaceRotationAdjust: set factor to 0.478
ElecMinimize: Iter:   3  F: -212.981518638951741  |grad|_K:  1.555e-07  alpha:  3.146e-01  linmin:  1.380e-05  t[s]:    550.70
	FillingsUpdate:  mu: -0.094094711  nElectrons: 45.000000
	SubspaceRotationAdjust: set factor to 0.576
ElecMinimize: Iter:   4  F: -212.981519040817432  |grad|_K:  1.095e-07  alpha:  4.865e-01  linmin:  1.107e-07  t[s]:    555.44
	FillingsUpdate:  mu: -0.094210949  nElectrons: 45.000000
	SubspaceRotationAdjust: set factor to 0.575
ElecMinimize: Iter:   5  F: -212.981519298039842  |grad|_K:  9.146e-08  alpha:  6.276e-01  linmin: -4.741e-07  t[s]:    560.22
	FillingsUpdate:  mu: -0.094146871  nElectrons: 45.000000
	SubspaceRotationAdjust: set factor to 0.605
ElecMinimize: Iter:   6  F: -212.981519504602346  |grad|_K:  8.268e-08  alpha:  7.221e-01  linmin:  1.198e-06  t[s]:    564.95
	FillingsUpdate:  mu: -0.094109624  nElectrons: 45.000000

Dumping 'X.fillings' ... done
Dumping 'X.wfns' ... done
Dumping 'X.ionpos' ... done
Dumping 'X.force' ... done
Dumping 'X.eigenvals' ... done
	SubspaceRotationAdjust: set factor to 0.622
ElecMinimize: Iter:   7  F: -212.981519628829574  |grad|_K:  6.021e-08  alpha:  5.316e-01  linmin:  1.549e-06  t[s]:    571.40
	FillingsUpdate:  mu: -0.094116095  nElectrons: 45.000000
	SubspaceRotationAdjust: set factor to 0.657
ElecMinimize: Iter:   8  F: -212.981519692075693  |grad|_K:  4.287e-08  alpha:  5.103e-01  linmin:  9.180e-06  t[s]:    576.15
	FillingsUpdate:  mu: -0.094136301  nElectrons: 45.000000
	SubspaceRotationAdjust: set factor to 0.684
ElecMinimize: Iter:   9  F: -212.981519726873614  |grad|_K:  3.575e-08  alpha:  5.540e-01  linmin:  5.131e-06  t[s]:    580.92
	FillingsUpdate:  mu: -0.094140937  nElectrons: 45.000000
	SubspaceRotationAdjust: set factor to 0.697
ElecMinimize: Iter:  10  F: -212.981519749520260  |grad|_K:  2.987e-08  alpha:  5.188e-01  linmin: -3.179e-06  t[s]:    585.66
	FillingsUpdate:  mu: -0.094141607  nElectrons: 45.000000
	SubspaceRotationAdjust: set factor to 0.699
ElecMinimize: Iter:  11  F: -212.981519764884666  |grad|_K:  2.527e-08  alpha:  5.036e-01  linmin:  8.377e-06  t[s]:    590.44
	FillingsUpdate:  mu: -0.094152700  nElectrons: 45.000000
	SubspaceRotationAdjust: set factor to 0.718
ElecMinimize: Iter:  12  F: -212.981519776361495  |grad|_K:  2.184e-08  alpha:  5.240e-01  linmin: -2.264e-05  t[s]:    595.19
	FillingsUpdate:  mu: -0.094151618  nElectrons: 45.000000
	SubspaceRotationAdjust: set factor to 0.752
ElecMinimize: Iter:  13  F: -212.981519784712646  |grad|_K:  1.861e-08  alpha:  5.136e-01  linmin: -1.513e-05  t[s]:    599.93
	FillingsUpdate:  mu: -0.094138582  nElectrons: 45.000000
	SubspaceRotationAdjust: set factor to 0.755
ElecMinimize: Iter:  14  F: -212.981519790302116  |grad|_K:  1.454e-08  alpha:  4.720e-01  linmin:  8.583e-06  t[s]:    604.69
ElecMinimize: Converged (|Delta F|<1.000000e-08 for 2 iters).
Setting wave functions to eigenvectors of Hamiltonian
Converging empty states (this may take a while): |deigs|: 2.414e-07

# Ionic positions in lattice coordinates:
ion Na   0.000000000000000   0.000000000000000   0.371629169648526 1
ion Na   0.500000000000000   0.500000000000000   0.436367690093452 1
ion Na   0.000000000000000   0.000000000000000   0.500000000000000 1
ion Na   0.500000000000000   0.500000000000000   0.563632309906548 1
ion Na   0.000000000000000   0.000000000000000   0.628370830351474 1

# Forces in Lattice coordinates:
force Na   0.000000000000000   0.000000000000000  -0.000182124476368 1
force Na   0.000000000000000   0.000000000000000   0.004625579846668 1
force Na   0.000000000000000  -0.000000000000000   0.000000000000000 1
force Na   0.000000000000000   0.000000000000000  -0.004625579846668 1
force Na   0.000000000000000   0.000000000000000   0.000182124476595 1

# Energy components:
   Eewald =     -739.0177034877918913
       EH =     -568.3829023809654473
     Eloc =     1081.9305524628414332
      Enl =      -64.6485953130583795
   Epulay =       -0.0000000018809979
      Exc =      -31.2932730163436759
       KE =      108.4306219020563162
-------------------------------------
     Etot =     -212.9812998351426359
       TS =        0.0002199551594737
-------------------------------------
        F =     -212.9815197903021158

IonicMinimize: Iter:   6  F: -212.981519790302116  |grad|_K:  2.761e-05  alpha:  1.000e+00  linmin: -7.900e-01  t[s]:    610.14

#--- Lowdin population analysis ---
# oxidation-state Na +0.044 +0.065 +0.015 +0.065 +0.044


-------- Electronic minimization -----------
	FillingsUpdate:  mu: -0.094691351  nElectrons: 45.000000
ElecMinimize: Iter:   0  F: -212.981495991284930  |grad|_K:  1.514e-06  alpha:  1.000e+00
	FillingsUpdate:  mu: -0.093844315  nElectrons: 45.000000
	SubspaceRotationAdjust: set factor to 0.568
ElecMinimize: Iter:   1  F: -212.981518219072655  |grad|_K:  3.176e-07  alpha:  2.822e-01  linmin: -5.940e-04  t[s]:    618.42
	FillingsUpdate:  mu: -0.094094033  nElectrons: 45.000000
	SubspaceRotationAdjust: set factor to 0.529
ElecMinimize: Iter:   2  F: -212.981519487784340  |grad|_K:  1.480e-07  alpha:  3.663e-01  linmin: -2.361e-06  t[s]:    623.19
	FillingsUpdate:  mu: -0.094042673  nElectrons: 45.000000
	SubspaceRotationAdjust: set factor to 0.534
ElecMinimize: Iter:   3  F: -212.981519832659302  |grad|_K:  9.358e-08  alpha:  4.603e-01  linmin:  2.815e-06  t[s]:    627.93
	FillingsUpdate:  mu: -0.094052693  nElectrons: 45.000000
	SubspaceRotationAdjust: set factor to 0.549
ElecMinimize: Iter:   4  F: -212.981519999897216  |grad|_K:  7.341e-08  alpha:  5.584e-01  linmin: -7.309e-06  t[s]:    632.67
	FillingsUpdate:  mu: -0.094075683  nElectrons: 45.000000
	SubspaceRotationAdjust: set factor to 0.564
ElecMinimize: Iter:   5  F: -212.981520108917834  |grad|_K:  5.947e-08  alpha:  5.912e-01  linmin:  2.644e-06  t[s]:    637.39
	FillingsUpdate:  mu: -0.094102601  nElectrons: 45.000000
	SubspaceRotationAdjust: set factor to 0.568
ElecMinimize: Iter:   6  F: -212.981520183307168  |grad|_K:  5.032e-08  alpha:  6.153e-01  linmin:  2.440e-06  t[s]:    641.83
	FillingsUpdate:  mu: -0.094096642  nElectrons: 45.000000

Dumping 'X.fillings' ... done
Dumping 'X.wfns' ... done
Dumping 'X.ionpos' ... done
Dumping 'X.force' ... done
Dumping 'X.eigenvals' ... done
	SubspaceRotationAdjust: set factor to 0.588
ElecMinimize: Iter:   7  F: -212.981520226018063  |grad|_K:  4.031e-08  alpha:  4.931e-01  linmin:  1.004e-05  t[s]:    646.65
	FillingsUpdate:  mu: -0.094082702  nElectrons: 45.000000
	SubspaceRotationAdjust: set factor to 0.606
ElecMinimize: Iter:   8  F: -212.981520250453570  |grad|_K:  3.008e-08  alpha:  4.398e-01  linmin: -5.375e-07  t[s]:    651.13
	FillingsUpdate:  mu: -0.094089663  nElectrons: 45.000000
	SubspaceRotationAdjust: set factor to 0.633
ElecMinimize: Iter:   9  F: -212.981520265860411  |grad|_K:  2.418e-08  alpha:  4.982e-01  linmin:  3.255e-06  t[s]:    655.77
	FillingsUpdate:  mu: -0.094100521  nElectrons: 45.000000
	SubspaceRotationAdjust: set factor to 0.637
ElecMinimize: Iter:  10  F: -212.981520275465044  |grad|_K:  1.960e-08  alpha:  4.805e-01  linmin: -3.215e-05  t[s]:    660.42
	FillingsUpdate:  mu: -0.094098745  nElectrons: 45.000000
	SubspaceRotationAdjust: set factor to 0.639
ElecMinimize: Iter:  11  F: -212.981520281804478  |grad|_K:  1.571e-08  alpha:  4.824e-01  linmin:  7.226e-05  t[s]:    665.08
ElecMinimize: Converged (|Delta F|<1.000000e-08 for 2 iters).
Setting wave functions to eigenvectors of Hamiltonian
Converging empty states (this may take a while): |deigs|: 1.369e-08

# Ionic positions in lattice coordinates:
ion Na   0.000000000000000   0.000000000000000   0.371762370004822 1
ion Na   0.500000000000000   0.500000000000000   0.436585528777722 1
ion Na   0.000000000000000   0.000000000000000   0.500000000000000 1
ion Na   0.500000000000000   0.500000000000000   0.563414471222278 1
ion Na   0.000000000000000   0.000000000000000   0.628237629995178 1

# Forces in Lattice coordinates:
force Na  -0.000000000000000  -0.000000000000000  -0.000252611921530 1
force Na   0.000000000000000   0.000000000000000  -0.000638666030630 1
force Na   0.000000000000000   0.000000000000000   0.000000000000000 1
force Na   0.000000000000000   0.000000000000000   0.000638666030744 1
force Na  -0.000000000000000   0.000000000000000   0.000252611921075 1

# Energy components:
   Eewald =     -738.0744537499866738
       EH =     -567.4388426886097250
     Eloc =     1080.0429797848842099
      Enl =      -64.6486882885920267
   Epulay =       -0.0000000018809979
      Exc =      -31.2935687292203362
       KE =      108.4312752309961922
-------------------------------------
     Etot =     -212.9812984424093827
       TS =        0.0002218393950869
-------------------------------------
        F =     -212.9815202818044781


Dumping 'X.fillings' ... done
Dumping 'X.wfns' ... done
Dumping 'X.ionpos' ... done
Dumping 'X.force' ... done
Dumping 'X.lattice' ... done
Dumping 'X.eigenvals' ... done
Dumping 'X.dos' ... done.
IonicMinimize: Iter:   7  F: -212.981520281804478  |grad|_K:  4.096e-06  alpha:  1.000e+00  linmin:  9.852e-01  t[s]:    670.41
IonicMinimize: Converged (|grad|_K<1.000000e-05).

#--- Lowdin population analysis ---
# oxidation-state Na +0.043 +0.065 +0.015 +0.065 +0.043


Dumping 'X.fillings' ... done
Dumping 'X.wfns' ... done
Dumping 'X.ionpos' ... done
Dumping 'X.lattice' ... done
Dumping 'X.n' ... done
Dumping 'X.eigenvals' ... done
Dumping 'X.eigStats' ... 
	eMin: -2.056675 at state 0 ( [ +0.000000 +0.000000 +0.000000 ] spin 0 )
	HOMO: -0.094794 at state 15 ( [ +0.272727 +0.272727 +0.000000 ] spin 0 )
	mu  : -0.094099
	LUMO: -0.093576 at state 17 ( [ +0.272727 +0.454545 +0.000000 ] spin 0 )
	eMax: -0.030603 at state 18 ( [ +0.363636 +0.363636 +0.000000 ] spin 0 )
	HOMO-LUMO gap: +0.001219
	Optical gap  : +0.018932 at state 9 ( [ +0.090909 +0.363636 +0.000000 ] spin 0 )
Dumping 'X.dos' ... done.
End date and time: Wed Nov  8 23:36:47 2023  (Duration: 0-0:11:15.29)
Done!
