
*************** JDFTx 1.7.0  ***************

Start date and time: Thu Nov  9 00:08:34 2023
Executable jdftx with command-line: -m -i X.in -o X.out
Running on hosts (process indices):  ac0170 (0-20)
Divided in process groups (process indices):  0 (0)  1 (1)  2 (2)  3 (3)  4 (4)  5 (5)  6 (6)  7 (7)  8 (8)  9 (9)  10 (10)  11 (11)  12 (12)  13 (13)  14 (14)  15 (15)  16 (16)  17 (17)  18 (18)  19 (19)  20 (20)
Resource initialization completed at t[s]:      0.01
Run totals: 21 processes, 21 threads, 0 GPUs


Input parsed successfully to the following command list (including defaults):

basis kpoint-dependent
cache-projectors no
coords-type Lattice
core-overlap-check vector
coulomb-interaction Slab 001
coulomb-truncation-embed 0 0 0.5
davidson-band-ratio 1.1
density-of-states Etol 1.000000e-06 Esigma 0.000000e+00 \
		Complete \
	Total \
		Occupied \
	Total
dump End State IonicPositions Lattice ElecDensity CoreDensity EigStats DOS
dump Electronic State Forces
dump Ionic State IonicPositions Forces Lattice DOS
dump-interval Electronic 8
dump-interval Ionic 4
dump-name X.$var
elec-cutoff 10
elec-eigen-algo Davidson
elec-ex-corr gga-PBE
elec-smearing Fermi 0.0095
electronic-minimize  \
	dirUpdateScheme      FletcherReeves \
	linminMethod         DirUpdateRecommended \
	nIterations          2000 \
	history              15 \
	knormThreshold       0 \
	energyDiffThreshold  1e-06 \
	nEnergyDiff          2 \
	alphaTstart          1 \
	alphaTmin            1e-10 \
	updateTestStepSize   yes \
	alphaTreduceFactor   0.1 \
	alphaTincreaseFactor 3 \
	nAlphaAdjustMax      3 \
	wolfeEnergy          0.0001 \
	wolfeGradient        0.9 \
	fdTest               no
exchange-regularization WignerSeitzTruncated
fluid None
fluid-ex-corr (null) lda-PZ
fluid-gummel-loop 10 1.000000e-05
fluid-minimize  \
	dirUpdateScheme      PolakRibiere \
	linminMethod         DirUpdateRecommended \
	nIterations          100 \
	history              15 \
	knormThreshold       0 \
	energyDiffThreshold  0 \
	nEnergyDiff          2 \
	alphaTstart          1 \
	alphaTmin            1e-10 \
	updateTestStepSize   yes \
	alphaTreduceFactor   0.1 \
	alphaTincreaseFactor 3 \
	nAlphaAdjustMax      3 \
	wolfeEnergy          0.0001 \
	wolfeGradient        0.9 \
	fdTest               no
fluid-solvent H2O 55.338 ScalarEOS \
	epsBulk 78.4 \
	pMol 0.92466 \
	epsInf 1.77 \
	Pvap 1.06736e-10 \
	sigmaBulk 4.62e-05 \
	Rvdw 2.61727 \
	Res 1.42 \
	tauNuc 343133 \
	poleEl 15 7 1
forces-output-coords Positions
initial-state X.$var
ion Na   0.000000000000000   0.000000000000000   0.294120000000000 1
ion Na   0.500000000000000   0.500000000000000   0.345590000000000 1
ion Na   0.000000000000000   0.000000000000000   0.397060000000000 1
ion Na   0.500000000000000   0.500000000000000   0.448530000000000 1
ion Na   0.000000000000000   0.000000000000000   0.500000000000000 1
ion Na   0.500000000000000   0.500000000000000   0.551470000000000 1
ion Na   0.000000000000000   0.000000000000000   0.602940000000000 1
ion Na   0.500000000000000   0.500000000000000   0.654410000000000 1
ion Na   0.000000000000000   0.000000000000000   0.705880000000000 1
ion-species SG15/$ID_ONCV_PBE.upf
ion-width 0
ionic-minimize  \
	dirUpdateScheme      L-BFGS \
	linminMethod         DirUpdateRecommended \
	nIterations          0 \
	history              15 \
	knormThreshold       0.0001 \
	energyDiffThreshold  1e-06 \
	nEnergyDiff          2 \
	alphaTstart          1 \
	alphaTmin            1e-10 \
	updateTestStepSize   yes \
	alphaTreduceFactor   0.1 \
	alphaTincreaseFactor 3 \
	nAlphaAdjustMax      3 \
	wolfeEnergy          0.0001 \
	wolfeGradient        0.9 \
	fdTest               no
kpoint   0.000000000000   0.000000000000   0.000000000000  1.00000000000000
kpoint-folding 11 11 1 
latt-move-scale 1 1 1
latt-scale 1.88973 1.88973 1.88973 
lattice  \
	   4.199920000000001   -0.000000000000000   -0.000000000000000  \
	   0.000000000000000    4.199920000000001   -0.000000000000000  \
	   0.000000000000000    0.000000000000000   40.799700000000001 
lattice-minimize  \
	dirUpdateScheme      L-BFGS \
	linminMethod         DirUpdateRecommended \
	nIterations          0 \
	history              15 \
	knormThreshold       0 \
	energyDiffThreshold  1e-06 \
	nEnergyDiff          2 \
	alphaTstart          1 \
	alphaTmin            1e-10 \
	updateTestStepSize   yes \
	alphaTreduceFactor   0.1 \
	alphaTincreaseFactor 3 \
	nAlphaAdjustMax      3 \
	wolfeEnergy          0.0001 \
	wolfeGradient        0.9 \
	fdTest               no
lcao-params -1 1e-06 0.0095
pcm-variant GLSSA13
spintype no-spin
subspace-rotation-factor 1 yes
symmetries automatic
symmetry-threshold 0.0001



---------- Setting up symmetries ----------

Found 16 point-group symmetries of the bravais lattice
Found 16 space-group symmetries with basis
Applied RMS atom displacement 0 bohrs to make symmetries exact.

---------- Initializing the Grid ----------
R = 
[      7.93671            0            0  ]
[            0      7.93671            0  ]
[            0            0      77.1004  ]
unit cell volume = 4856.67
G =
[   0.791661          0          0  ]
[         -0   0.791661          0  ]
[          0         -0  0.0814935  ]
Minimum fftbox size, Smin = [  24  24  220  ]
Chosen fftbox size, S = [  24  24  224  ]

---------- Exchange Correlation functional ----------
Initalized PBE GGA exchange.
Initalized PBE GGA correlation.

---------- Setting up pseudopotentials ----------
Width of ionic core gaussian charges (only for fluid interactions / plotting) set to 0

Reading pseudopotential file '/net/software/testing/software/jdftx/1.7.0-foss-2021b-mkl/share/jdftx/pseudopotentials/SG15/Na_ONCV_PBE.upf':
  'Na' pseudopotential, 'PBE' functional
  Generated using ONCVPSP code by D. R. Hamann
  Author: Martin Schlipf and Francois Gygi  Date: 150915.
  9 valence electrons, 3 orbitals, 4 projectors, 1992 radial grid points, with lMax = 1
  Transforming local potential to a uniform radial grid of dG=0.02 with 818 points.
  Transforming nonlocal projectors to a uniform radial grid of dG=0.02 with 307 points.
    2S    l: 0   occupation:  2.0   eigenvalue: -2.085640
    2P    l: 1   occupation:  6.0   eigenvalue: -1.053708
    3S    l: 0   occupation:  1.0   eigenvalue: -0.100838
  Transforming atomic orbitals to a uniform radial grid of dG=0.02 with 307 points.
  Core radius for overlap checks: 2.01 bohrs.
  Reading pulay file /net/software/testing/software/jdftx/1.7.0-foss-2021b-mkl/share/jdftx/pseudopotentials/SG15/Na_ONCV_PBE.pulay ... using dE_dnG = -1.681960e+00 computed for Ecut = 10.

Initialized 1 species with 9 total atoms.

Folded 1 k-points by 11x11x1 to 121 k-points.

---------- Setting up k-points, bands, fillings ----------
Reduced to 21 k-points under symmetry. 
Computing the number of bands and number of electrons
Calculating initial fillings.
nElectrons:  81.000000   nBands: 45   nStates: 21

----- Setting up reduced wavefunction bases (one per k-point) -----
average nbasis = 7335.545 , ideal nbasis = 7335.543

----- Initializing Supercell corresponding to k-point mesh -----
Lattice vector linear combinations in supercell:
[  11   0   0  ]
[   0  11   0  ]
[   0   0   1  ]
Supercell lattice vectors:
[  87.3039  0  0  ]
[  0  87.3039  0  ]
[  0  0  77.1004  ]

---------- Setting up coulomb interaction ----------
Setting up double-sized grid for truncated Coulomb potentials:
R = 
[      7.93671            0            0  ]
[            0      7.93671            0  ]
[            0            0      154.201  ]
unit cell volume = 9713.33
G =
[   0.791661          0          0  ]
[         -0   0.791661          0  ]
[          0         -0  0.0407468  ]
Chosen fftbox size, S = [  24  24  448  ]
Integer grid location selected as the embedding center:
   Grid: [  0  0  112  ]
   Lattice: [  0  0  0.5  ]
   Cartesian: [  0  0  38.5502  ]
Constructing Wigner-Seitz cell: 6 faces (6 quadrilaterals, 0 hexagons)
Range-separation parameter for embedded mesh potentials due to point charges: 0.740141 bohrs.
Initialized slab truncation along lattice direction 001

---------- Setting up 2D ewald sum ----------
Optimum gaussian width for ewald sums = 4.734710 bohr.
Real space sums over 225 unit cells with max indices [  7  7  0  ]
Reciprocal space sums over 81 terms with max indices [  4  4  0  ]

---------- Allocating electronic variables ----------
Initializing wave functions:  linear combination of atomic orbitals
Na pseudo-atom occupations:   s ( 2 1 )  p ( 6 )
	FillingsUpdate:  mu: +0.029946182  nElectrons: 81.000000
LCAOMinimize: Iter:   0  F: -375.0346810570624143  |grad|_K:  4.552e-03  alpha:  1.000e+00
	FillingsUpdate:  mu: -0.231770231  nElectrons: 81.000000
LCAOMinimize: Iter:   1  F: -375.0541984721408539  |grad|_K:  2.789e-03  alpha:  9.681e-02  linmin:  1.703e-01  cgtest: -9.391e-01  t[s]:      0.97
LCAOMinimize: 	Bad step direction: g.d > 0.
LCAOMinimize: 	Undoing step.
LCAOMinimize: 	Step failed: resetting search direction.
	FillingsUpdate:  mu: -0.231770231  nElectrons: 81.000000
LCAOMinimize: Iter:   2  F: -375.0541984721408539  |grad|_K:  2.789e-03  alpha:  0.000e+00
	FillingsUpdate:  mu: -0.135059142  nElectrons: 81.000000
LCAOMinimize: Iter:   3  F: -375.0648925689956172  |grad|_K:  4.776e-04  alpha:  6.192e-02  linmin:  8.336e-04  cgtest: -1.165e-02  t[s]:      1.55
LCAOMinimize: 	Predicted alpha/alphaT>3.000000, increasing alphaT to 1.857637e-01.
LCAOMinimize: 	Predicted alpha/alphaT>3.000000, increasing alphaT to 5.572911e-01.
	FillingsUpdate:  mu: -0.149171727  nElectrons: 81.000000
LCAOMinimize: Iter:   4  F: -375.0681442712922831  |grad|_K:  3.052e-04  alpha:  6.389e-01  linmin: -1.122e-03  cgtest:  1.299e-01  t[s]:      2.18
	FillingsUpdate:  mu: -0.147328750  nElectrons: 81.000000
LCAOMinimize: Iter:   5  F: -375.0688769101984121  |grad|_K:  1.884e-04  alpha:  3.477e-01  linmin:  1.464e-05  cgtest: -8.646e-02  t[s]:      2.53
	FillingsUpdate:  mu: -0.140455198  nElectrons: 81.000000
LCAOMinimize: Iter:   6  F: -375.0689296454879695  |grad|_K:  4.434e-05  alpha:  6.681e-02  linmin: -1.339e-04  cgtest:  4.952e-03  t[s]:      2.89
LCAOMinimize: 	Predicted alpha/alphaT>3.000000, increasing alphaT to 2.004352e-01.
	FillingsUpdate:  mu: -0.141647697  nElectrons: 81.000000
LCAOMinimize: Iter:   7  F: -375.0689475961781341  |grad|_K:  2.498e-05  alpha:  4.107e-01  linmin:  3.968e-05  cgtest: -8.411e-04  t[s]:      3.38
	FillingsUpdate:  mu: -0.142667354  nElectrons: 81.000000
LCAOMinimize: Iter:   8  F: -375.0689492116832753  |grad|_K:  2.207e-05  alpha:  1.165e-01  linmin: -2.504e-05  cgtest:  1.953e-03  t[s]:      3.74
	FillingsUpdate:  mu: -0.141744759  nElectrons: 81.000000
LCAOMinimize: Iter:   9  F: -375.0689521150634960  |grad|_K:  4.568e-06  alpha:  2.679e-01  linmin: -7.044e-05  cgtest: -1.728e-02  t[s]:      4.09
	FillingsUpdate:  mu: -0.141619137  nElectrons: 81.000000
LCAOMinimize: Iter:  10  F: -375.0689522147640673  |grad|_K:  4.997e-06  alpha:  2.149e-01  linmin: -1.928e-05  cgtest: -3.126e-04  t[s]:      4.45
	FillingsUpdate:  mu: -0.141825854  nElectrons: 81.000000
LCAOMinimize: Iter:  11  F: -375.0689522719703177  |grad|_K:  1.072e-06  alpha:  1.031e-01  linmin:  4.107e-05  cgtest: -3.631e-03  t[s]:      4.81
LCAOMinimize: Converged (|Delta F|<1.000000e-06 for 2 iters).


---- Citations for features of the code used in this run ----

   Software package:
      R. Sundararaman, K. Letchworth-Weaver, K.A. Schwarz, D. Gunceler, Y. Ozhabes and T.A. Arias, 'JDFTx: software for joint density-functional theory', SoftwareX 6, 278 (2017)

   gga-PBE exchange-correlation functional:
      J.P. Perdew, K. Burke and M. Ernzerhof, Phys. Rev. Lett. 77, 3865 (1996)

   Pseudopotentials:
      M Schlipf and F Gygi, Comput. Phys. Commun. 196, 36 (2015)

   Truncated Coulomb potentials:
      R. Sundararaman and T.A. Arias, Phys. Rev. B 87, 165122 (2013)

   Total energy minimization with Auxiliary Hamiltonian:
      C. Freysoldt, S. Boeck, and J. Neugebauer, Phys. Rev. B 79, 241103(R) (2009)

   Linear-tetrahedron sampling for density of states:
      G. Lehmann and M. Taut, Phys. status solidi (b) 54, 469 (1972)

This list may not be complete. Please suggest additional citations or
report any other bugs at https://github.com/shankar1729/jdftx/issues

Initialization completed successfully at t[s]:      4.86


-------- Electronic minimization -----------
	FillingsUpdate:  mu: -0.141825854  nElectrons: 81.000000
ElecMinimize: Iter:   0  F: -375.068952271971170  |grad|_K:  5.148e-04  alpha:  1.000e+00
	FillingsUpdate:  mu: -0.129145311  nElectrons: 81.000000
	SubspaceRotationAdjust: set factor to 1
ElecMinimize: Iter:   1  F: -375.605215352800542  |grad|_K:  1.311e-04  alpha:  2.919e-01  linmin:  3.037e-03  t[s]:      5.75
	FillingsUpdate:  mu: -0.149435716  nElectrons: 81.000000
	SubspaceRotationAdjust: set factor to 0.976
ElecMinimize: Iter:   2  F: -375.646990223622367  |grad|_K:  6.250e-05  alpha:  3.509e-01  linmin:  8.971e-06  t[s]:      6.29
	FillingsUpdate:  mu: -0.091992995  nElectrons: 81.000000
	SubspaceRotationAdjust: set factor to 0.658
ElecMinimize: Iter:   3  F: -375.652817016127074  |grad|_K:  8.141e-05  alpha:  2.140e-01  linmin: -7.816e-06  t[s]:      6.84
	FillingsUpdate:  mu: -0.133383912  nElectrons: 81.000000
	SubspaceRotationAdjust: set factor to 0.5
ElecMinimize: Iter:   4  F: -375.661292554906026  |grad|_K:  4.580e-05  alpha:  1.835e-01  linmin:  1.842e-05  t[s]:      7.39
ElecMinimize: 	Predicted alpha/alphaT>3.000000, increasing alphaT to 5.504990e-01.
	FillingsUpdate:  mu: -0.143504109  nElectrons: 81.000000
	SubspaceRotationAdjust: set factor to 0.543
ElecMinimize: Iter:   5  F: -375.671506214091892  |grad|_K:  5.064e-05  alpha:  7.024e-01  linmin:  1.666e-05  t[s]:      8.12
	FillingsUpdate:  mu: -0.091754684  nElectrons: 81.000000
	SubspaceRotationAdjust: set factor to 0.387
ElecMinimize: Iter:   6  F: -375.676972017944877  |grad|_K:  4.970e-05  alpha:  2.982e-01  linmin: -2.121e-04  t[s]:      8.66
	FillingsUpdate:  mu: -0.122182944  nElectrons: 81.000000

Dumping 'X.fillings' ... done
Dumping 'X.wfns' ... done
Dumping 'X.force' ... done
Dumping 'X.eigenvals' ... done
	SubspaceRotationAdjust: set factor to 0.284
ElecMinimize: Iter:   7  F: -375.681896353025763  |grad|_K:  3.178e-05  alpha:  2.802e-01  linmin:  1.695e-04  t[s]:      9.32
	FillingsUpdate:  mu: -0.118991570  nElectrons: 81.000000
	SubspaceRotationAdjust: set factor to 0.323
ElecMinimize: Iter:   8  F: -375.684945514697404  |grad|_K:  2.323e-05  alpha:  4.363e-01  linmin:  8.132e-06  t[s]:      9.87
	FillingsUpdate:  mu: -0.102980147  nElectrons: 81.000000
	SubspaceRotationAdjust: set factor to 0.285
ElecMinimize: Iter:   9  F: -375.686531008054487  |grad|_K:  1.860e-05  alpha:  4.226e-01  linmin:  1.357e-05  t[s]:     10.41
	FillingsUpdate:  mu: -0.118251090  nElectrons: 81.000000
	SubspaceRotationAdjust: set factor to 0.228
ElecMinimize: Iter:  10  F: -375.687594355623389  |grad|_K:  1.603e-05  alpha:  4.428e-01  linmin:  1.276e-05  t[s]:     10.96
	FillingsUpdate:  mu: -0.111543038  nElectrons: 81.000000
	SubspaceRotationAdjust: set factor to 0.23
ElecMinimize: Iter:  11  F: -375.688500500185569  |grad|_K:  1.416e-05  alpha:  5.087e-01  linmin:  5.337e-06  t[s]:     11.50
	FillingsUpdate:  mu: -0.107455836  nElectrons: 81.000000
	SubspaceRotationAdjust: set factor to 0.233
ElecMinimize: Iter:  12  F: -375.689168386817471  |grad|_K:  1.225e-05  alpha:  4.801e-01  linmin:  1.333e-06  t[s]:     12.05
	FillingsUpdate:  mu: -0.115097915  nElectrons: 81.000000
	SubspaceRotationAdjust: set factor to 0.212
ElecMinimize: Iter:  13  F: -375.689652890601053  |grad|_K:  9.452e-06  alpha:  4.644e-01  linmin:  5.701e-06  t[s]:     12.59
	FillingsUpdate:  mu: -0.112967430  nElectrons: 81.000000
	SubspaceRotationAdjust: set factor to 0.219
ElecMinimize: Iter:  14  F: -375.689940815349019  |grad|_K:  7.447e-06  alpha:  4.641e-01  linmin:  3.343e-06  t[s]:     13.14
	FillingsUpdate:  mu: -0.111379579  nElectrons: 81.000000

Dumping 'X.fillings' ... done
Dumping 'X.wfns' ... done
Dumping 'X.force' ... done
Dumping 'X.eigenvals' ... done
	SubspaceRotationAdjust: set factor to 0.223
ElecMinimize: Iter:  15  F: -375.690124592762345  |grad|_K:  6.587e-06  alpha:  4.769e-01  linmin:  4.941e-06  t[s]:     13.79
	FillingsUpdate:  mu: -0.114126139  nElectrons: 81.000000
	SubspaceRotationAdjust: set factor to 0.222
ElecMinimize: Iter:  16  F: -375.690281893334429  |grad|_K:  5.992e-06  alpha:  5.217e-01  linmin:  2.989e-05  t[s]:     14.34
	FillingsUpdate:  mu: -0.113441920  nElectrons: 81.000000
	SubspaceRotationAdjust: set factor to 0.23
ElecMinimize: Iter:  17  F: -375.690416363182806  |grad|_K:  5.313e-06  alpha:  5.392e-01  linmin:  8.261e-06  t[s]:     14.88
	FillingsUpdate:  mu: -0.112797006  nElectrons: 81.000000
	SubspaceRotationAdjust: set factor to 0.236
ElecMinimize: Iter:  18  F: -375.690508128516171  |grad|_K:  4.471e-06  alpha:  4.679e-01  linmin:  2.466e-06  t[s]:     15.42
	FillingsUpdate:  mu: -0.114014728  nElectrons: 81.000000
	SubspaceRotationAdjust: set factor to 0.238
ElecMinimize: Iter:  19  F: -375.690574063768111  |grad|_K:  3.709e-06  alpha:  4.746e-01  linmin:  2.978e-06  t[s]:     15.98
	FillingsUpdate:  mu: -0.113296781  nElectrons: 81.000000
	SubspaceRotationAdjust: set factor to 0.241
ElecMinimize: Iter:  20  F: -375.690624036727456  |grad|_K:  3.309e-06  alpha:  5.228e-01  linmin:  1.744e-06  t[s]:     16.53
	FillingsUpdate:  mu: -0.113391775  nElectrons: 81.000000
	SubspaceRotationAdjust: set factor to 0.247
ElecMinimize: Iter:  21  F: -375.690661548639753  |grad|_K:  2.958e-06  alpha:  4.928e-01  linmin:  1.399e-06  t[s]:     17.09
	FillingsUpdate:  mu: -0.114226172  nElectrons: 81.000000
	SubspaceRotationAdjust: set factor to 0.247
ElecMinimize: Iter:  22  F: -375.690691910717874  |grad|_K:  2.558e-06  alpha:  4.992e-01  linmin:  2.757e-06  t[s]:     17.66
	FillingsUpdate:  mu: -0.113443329  nElectrons: 81.000000

Dumping 'X.fillings' ... done
Dumping 'X.wfns' ... done
Dumping 'X.force' ... done
Dumping 'X.eigenvals' ... done
	SubspaceRotationAdjust: set factor to 0.244
ElecMinimize: Iter:  23  F: -375.690714859207276  |grad|_K:  2.242e-06  alpha:  5.047e-01  linmin:  1.382e-06  t[s]:     18.30
	FillingsUpdate:  mu: -0.113847608  nElectrons: 81.000000
	SubspaceRotationAdjust: set factor to 0.251
ElecMinimize: Iter:  24  F: -375.690732703196716  |grad|_K:  2.066e-06  alpha:  5.106e-01  linmin:  3.563e-06  t[s]:     18.84
	FillingsUpdate:  mu: -0.114409860  nElectrons: 81.000000
	SubspaceRotationAdjust: set factor to 0.256
ElecMinimize: Iter:  25  F: -375.690748202138252  |grad|_K:  1.912e-06  alpha:  5.227e-01  linmin:  8.779e-06  t[s]:     19.39
	FillingsUpdate:  mu: -0.113594844  nElectrons: 81.000000
	SubspaceRotationAdjust: set factor to 0.25
ElecMinimize: Iter:  26  F: -375.690761826880816  |grad|_K:  1.806e-06  alpha:  5.364e-01  linmin:  1.175e-05  t[s]:     19.93
	FillingsUpdate:  mu: -0.114034187  nElectrons: 81.000000
	SubspaceRotationAdjust: set factor to 0.253
ElecMinimize: Iter:  27  F: -375.690773928464637  |grad|_K:  1.695e-06  alpha:  5.340e-01  linmin:  2.561e-06  t[s]:     20.48
	FillingsUpdate:  mu: -0.114256784  nElectrons: 81.000000
	SubspaceRotationAdjust: set factor to 0.259
ElecMinimize: Iter:  28  F: -375.690784207731042  |grad|_K:  1.538e-06  alpha:  5.144e-01  linmin:  4.230e-07  t[s]:     21.02
	FillingsUpdate:  mu: -0.113575272  nElectrons: 81.000000
	SubspaceRotationAdjust: set factor to 0.252
ElecMinimize: Iter:  29  F: -375.690792728394172  |grad|_K:  1.422e-06  alpha:  5.183e-01  linmin:  1.941e-06  t[s]:     21.57
	FillingsUpdate:  mu: -0.114013612  nElectrons: 81.000000
	SubspaceRotationAdjust: set factor to 0.251
ElecMinimize: Iter:  30  F: -375.690800271473336  |grad|_K:  1.368e-06  alpha:  5.364e-01  linmin:  1.655e-07  t[s]:     22.11
	FillingsUpdate:  mu: -0.114013523  nElectrons: 81.000000

Dumping 'X.fillings' ... done
Dumping 'X.wfns' ... done
Dumping 'X.force' ... done
Dumping 'X.eigenvals' ... done
	SubspaceRotationAdjust: set factor to 0.258
ElecMinimize: Iter:  31  F: -375.690807290875341  |grad|_K:  1.278e-06  alpha:  5.391e-01  linmin:  8.582e-08  t[s]:     22.77
	FillingsUpdate:  mu: -0.113626312  nElectrons: 81.000000
	SubspaceRotationAdjust: set factor to 0.257
ElecMinimize: Iter:  32  F: -375.690813108694840  |grad|_K:  1.155e-06  alpha:  5.125e-01  linmin:  3.054e-07  t[s]:     23.32
	FillingsUpdate:  mu: -0.114031337  nElectrons: 81.000000
	SubspaceRotationAdjust: set factor to 0.255
ElecMinimize: Iter:  33  F: -375.690817759634683  |grad|_K:  1.040e-06  alpha:  5.012e-01  linmin:  2.917e-07  t[s]:     23.86
	FillingsUpdate:  mu: -0.113885457  nElectrons: 81.000000
	SubspaceRotationAdjust: set factor to 0.263
ElecMinimize: Iter:  34  F: -375.690821634824260  |grad|_K:  9.325e-07  alpha:  5.150e-01  linmin: -1.957e-06  t[s]:     24.40
	FillingsUpdate:  mu: -0.113749474  nElectrons: 81.000000
	SubspaceRotationAdjust: set factor to 0.269
ElecMinimize: Iter:  35  F: -375.690824735917033  |grad|_K:  8.496e-07  alpha:  5.128e-01  linmin: -5.025e-07  t[s]:     24.95
	FillingsUpdate:  mu: -0.114027140  nElectrons: 81.000000
	SubspaceRotationAdjust: set factor to 0.267
ElecMinimize: Iter:  36  F: -375.690827223230542  |grad|_K:  7.490e-07  alpha:  4.956e-01  linmin:  4.881e-07  t[s]:     25.49
	FillingsUpdate:  mu: -0.113790487  nElectrons: 81.000000
	SubspaceRotationAdjust: set factor to 0.265
ElecMinimize: Iter:  37  F: -375.690829121247759  |grad|_K:  6.352e-07  alpha:  4.866e-01  linmin: -2.122e-07  t[s]:     26.04
	FillingsUpdate:  mu: -0.113847223  nElectrons: 81.000000
	SubspaceRotationAdjust: set factor to 0.272
ElecMinimize: Iter:  38  F: -375.690830484434173  |grad|_K:  5.471e-07  alpha:  4.859e-01  linmin:  1.754e-07  t[s]:     26.63
	FillingsUpdate:  mu: -0.113967729  nElectrons: 81.000000

Dumping 'X.fillings' ... done
Dumping 'X.wfns' ... done
Dumping 'X.force' ... done
Dumping 'X.eigenvals' ... done
	SubspaceRotationAdjust: set factor to 0.275
ElecMinimize: Iter:  39  F: -375.690831509611485  |grad|_K:  4.826e-07  alpha:  4.925e-01  linmin: -4.224e-07  t[s]:     27.30
	FillingsUpdate:  mu: -0.113776925  nElectrons: 81.000000
	SubspaceRotationAdjust: set factor to 0.266
ElecMinimize: Iter:  40  F: -375.690832309279870  |grad|_K:  4.221e-07  alpha:  4.937e-01  linmin: -2.900e-07  t[s]:     27.84
	FillingsUpdate:  mu: -0.113905461  nElectrons: 81.000000
	SubspaceRotationAdjust: set factor to 0.266
ElecMinimize: Iter:  41  F: -375.690832918456181  |grad|_K:  3.698e-07  alpha:  4.916e-01  linmin:  1.261e-07  t[s]:     28.39
ElecMinimize: Converged (|Delta F|<1.000000e-06 for 2 iters).
Setting wave functions to eigenvectors of Hamiltonian

# Ionic positions in lattice coordinates:
ion Na   0.000000000000000   0.000000000000000   0.294120000000000 1
ion Na   0.500000000000000   0.500000000000000   0.345590000000000 1
ion Na   0.000000000000000   0.000000000000000   0.397060000000000 1
ion Na   0.500000000000000   0.500000000000000   0.448530000000000 1
ion Na   0.000000000000000   0.000000000000000   0.500000000000000 1
ion Na   0.500000000000000   0.500000000000000   0.551470000000000 1
ion Na   0.000000000000000   0.000000000000000   0.602940000000000 1
ion Na   0.500000000000000   0.500000000000000   0.654410000000000 1
ion Na   0.000000000000000   0.000000000000000   0.705880000000000 1

# Forces in Lattice coordinates:
force Na  -0.000000000000000  -0.000000000000000   0.036891179731985 1
force Na   0.000000000000000  -0.000000000000000   0.000092807619475 1
force Na   0.000000000000000  -0.000000000000000  -0.006677699666904 1
force Na  -0.000000000000000  -0.000000000000000  -0.004618343613065 1
force Na  -0.000000000000000  -0.000000000000000   0.000000000000000 1
force Na  -0.000000000000000  -0.000000000000000   0.004618343613065 1
force Na   0.000000000000000  -0.000000000000000   0.006677699666904 1
force Na  -0.000000000000000  -0.000000000000000  -0.000092807620384 1
force Na  -0.000000000000000  -0.000000000000000  -0.036891179730166 1

# Energy components:
   Eewald =    -4037.3878824492785498
       EH =    -3746.3391424254446065
     Eloc =     7386.8443876670316968
      Enl =     -103.9367380622637427
   Epulay =        0.0000071583110033
      Exc =      -53.7860145655916995
       KE =      178.9483138317980035
-------------------------------------
     Etot =     -375.6570688454373794
       TS =        0.0337640730187905
-------------------------------------
        F =     -375.6908329184561808

IonicMinimize: Iter:   0  F: -375.690832918456181  |grad|_K:  1.333e-04  t[s]:     28.51
IonicMinimize: None of the convergence criteria satisfied after 0 iterations.

#--- Lowdin population analysis ---
# oxidation-state Na +0.071 +0.046 +0.038 +0.048 +0.044 +0.048 +0.038 +0.046 +0.071


Dumping 'X.fillings' ... done
Dumping 'X.wfns' ... done
Dumping 'X.ionpos' ... done
Dumping 'X.lattice' ... done
Dumping 'X.n' ... done
Dumping 'X.eigenvals' ... done
Dumping 'X.eigStats' ... 
	eMin: -2.308412 at state 5 ( [ +0.000000 +0.454545 +0.000000 ] spin 0 )
	HOMO: -0.114196 at state 9 ( [ +0.090909 +0.363636 +0.000000 ] spin 0 )
	mu  : -0.113905
	LUMO: -0.112899 at state 5 ( [ +0.000000 +0.454545 +0.000000 ] spin 0 )
	eMax: -0.004579 at state 11 ( [ +0.181818 +0.181818 +0.000000 ] spin 0 )
	HOMO-LUMO gap: +0.001297
	Optical gap  : +0.007223 at state 5 ( [ +0.000000 +0.454545 +0.000000 ] spin 0 )
Dumping 'X.dos' ... done.
End date and time: Thu Nov  9 00:09:03 2023  (Duration: 0-0:00:28.68)
Done!

*************** JDFTx 1.7.0  ***************

Start date and time: Thu Nov  9 00:09:05 2023
Executable jdftx with command-line: -m -i X.in -o X.out
Running on hosts (process indices):  ac0170 (0-20)
Divided in process groups (process indices):  0 (0)  1 (1)  2 (2)  3 (3)  4 (4)  5 (5)  6 (6)  7 (7)  8 (8)  9 (9)  10 (10)  11 (11)  12 (12)  13 (13)  14 (14)  15 (15)  16 (16)  17 (17)  18 (18)  19 (19)  20 (20)
Resource initialization completed at t[s]:      0.01
Run totals: 21 processes, 21 threads, 0 GPUs


Input parsed successfully to the following command list (including defaults):

basis kpoint-dependent
cache-projectors no
coords-type Lattice
core-overlap-check vector
coulomb-interaction Slab 001
coulomb-truncation-embed 0 0 0.5
davidson-band-ratio 1.1
density-of-states Etol 1.000000e-06 Esigma 0.000000e+00 \
		Complete \
	Total \
		Occupied \
	Total
dump End State IonicPositions Lattice ElecDensity CoreDensity EigStats DOS
dump Electronic State Forces
dump Ionic State IonicPositions Forces Lattice DOS
dump-interval Electronic 8
dump-interval Ionic 4
dump-name X.$var
elec-cutoff 20
elec-eigen-algo Davidson
elec-ex-corr gga-PBE
elec-smearing Fermi 0.0095
electronic-minimize  \
	dirUpdateScheme      FletcherReeves \
	linminMethod         DirUpdateRecommended \
	nIterations          2000 \
	history              15 \
	knormThreshold       0 \
	energyDiffThreshold  1e-07 \
	nEnergyDiff          2 \
	alphaTstart          1 \
	alphaTmin            1e-10 \
	updateTestStepSize   yes \
	alphaTreduceFactor   0.1 \
	alphaTincreaseFactor 3 \
	nAlphaAdjustMax      3 \
	wolfeEnergy          0.0001 \
	wolfeGradient        0.9 \
	fdTest               no
exchange-regularization WignerSeitzTruncated
fluid None
fluid-ex-corr (null) lda-PZ
fluid-gummel-loop 10 1.000000e-05
fluid-minimize  \
	dirUpdateScheme      PolakRibiere \
	linminMethod         DirUpdateRecommended \
	nIterations          100 \
	history              15 \
	knormThreshold       0 \
	energyDiffThreshold  0 \
	nEnergyDiff          2 \
	alphaTstart          1 \
	alphaTmin            1e-10 \
	updateTestStepSize   yes \
	alphaTreduceFactor   0.1 \
	alphaTincreaseFactor 3 \
	nAlphaAdjustMax      3 \
	wolfeEnergy          0.0001 \
	wolfeGradient        0.9 \
	fdTest               no
fluid-solvent H2O 55.338 ScalarEOS \
	epsBulk 78.4 \
	pMol 0.92466 \
	epsInf 1.77 \
	Pvap 1.06736e-10 \
	sigmaBulk 4.62e-05 \
	Rvdw 2.61727 \
	Res 1.42 \
	tauNuc 343133 \
	poleEl 15 7 1
forces-output-coords Positions
ion Na   0.000000000000000   0.000000000000000   0.294120000000000 1
ion Na   0.500000000000000   0.500000000000000   0.345590000000000 1
ion Na   0.000000000000000   0.000000000000000   0.397060000000000 1
ion Na   0.500000000000000   0.500000000000000   0.448530000000000 1
ion Na   0.000000000000000   0.000000000000000   0.500000000000000 1
ion Na   0.500000000000000   0.500000000000000   0.551470000000000 1
ion Na   0.000000000000000   0.000000000000000   0.602940000000000 1
ion Na   0.500000000000000   0.500000000000000   0.654410000000000 1
ion Na   0.000000000000000   0.000000000000000   0.705880000000000 1
ion-species SG15/$ID_ONCV_PBE.upf
ion-width 0
ionic-minimize  \
	dirUpdateScheme      L-BFGS \
	linminMethod         DirUpdateRecommended \
	nIterations          0 \
	history              15 \
	knormThreshold       0.0001 \
	energyDiffThreshold  1e-06 \
	nEnergyDiff          2 \
	alphaTstart          1 \
	alphaTmin            1e-10 \
	updateTestStepSize   yes \
	alphaTreduceFactor   0.1 \
	alphaTincreaseFactor 3 \
	nAlphaAdjustMax      3 \
	wolfeEnergy          0.0001 \
	wolfeGradient        0.9 \
	fdTest               no
kpoint   0.000000000000   0.000000000000   0.000000000000  1.00000000000000
kpoint-folding 11 11 1 
latt-move-scale 1 1 1
latt-scale 1 1 1 
lattice  \
	   7.936714821600003   -0.000000000000000   -0.000000000000000  \
	   0.000000000000000    7.936714821600003   -0.000000000000000  \
	   0.000000000000000    0.000000000000000   77.100417081000003 
lattice-minimize  \
	dirUpdateScheme      L-BFGS \
	linminMethod         DirUpdateRecommended \
	nIterations          0 \
	history              15 \
	knormThreshold       0 \
	energyDiffThreshold  1e-06 \
	nEnergyDiff          2 \
	alphaTstart          1 \
	alphaTmin            1e-10 \
	updateTestStepSize   yes \
	alphaTreduceFactor   0.1 \
	alphaTincreaseFactor 3 \
	nAlphaAdjustMax      3 \
	wolfeEnergy          0.0001 \
	wolfeGradient        0.9 \
	fdTest               no
lcao-params -1 1e-06 0.0095
pcm-variant GLSSA13
spintype no-spin
subspace-rotation-factor 1 yes
symmetries automatic
symmetry-threshold 0.0001
wavefunction read X.wfns 45 10.000000



---------- Setting up symmetries ----------

Found 16 point-group symmetries of the bravais lattice
Found 16 space-group symmetries with basis
Applied RMS atom displacement 0 bohrs to make symmetries exact.

---------- Initializing the Grid ----------
R = 
[      7.93671            0            0  ]
[            0      7.93671            0  ]
[            0            0      77.1004  ]
unit cell volume = 4856.67
G =
[   0.791661          0          0  ]
[         -0   0.791661          0  ]
[          0         -0  0.0814935  ]
Minimum fftbox size, Smin = [  32  32  312  ]
Chosen fftbox size, S = [  32  32  320  ]

---------- Exchange Correlation functional ----------
Initalized PBE GGA exchange.
Initalized PBE GGA correlation.

---------- Setting up pseudopotentials ----------
Width of ionic core gaussian charges (only for fluid interactions / plotting) set to 0

Reading pseudopotential file '/net/software/testing/software/jdftx/1.7.0-foss-2021b-mkl/share/jdftx/pseudopotentials/SG15/Na_ONCV_PBE.upf':
  'Na' pseudopotential, 'PBE' functional
  Generated using ONCVPSP code by D. R. Hamann
  Author: Martin Schlipf and Francois Gygi  Date: 150915.
  9 valence electrons, 3 orbitals, 4 projectors, 1992 radial grid points, with lMax = 1
  Transforming local potential to a uniform radial grid of dG=0.02 with 1113 points.
  Transforming nonlocal projectors to a uniform radial grid of dG=0.02 with 432 points.
    2S    l: 0   occupation:  2.0   eigenvalue: -2.085640
    2P    l: 1   occupation:  6.0   eigenvalue: -1.053708
    3S    l: 0   occupation:  1.0   eigenvalue: -0.100838
  Transforming atomic orbitals to a uniform radial grid of dG=0.02 with 432 points.
  Core radius for overlap checks: 2.01 bohrs.
  Reading pulay file /net/software/testing/software/jdftx/1.7.0-foss-2021b-mkl/share/jdftx/pseudopotentials/SG15/Na_ONCV_PBE.pulay ... using dE_dnG = -2.946487e-03 computed for Ecut = 20.

Initialized 1 species with 9 total atoms.

Folded 1 k-points by 11x11x1 to 121 k-points.

---------- Setting up k-points, bands, fillings ----------
Reduced to 21 k-points under symmetry. 
Computing the number of bands and number of electrons
Calculating initial fillings.
nElectrons:  81.000000   nBands: 45   nStates: 21

----- Setting up reduced wavefunction bases (one per k-point) -----
average nbasis = 20749.479 , ideal nbasis = 20748.049

----- Initializing Supercell corresponding to k-point mesh -----
Lattice vector linear combinations in supercell:
[  11   0   0  ]
[   0  11   0  ]
[   0   0   1  ]
Supercell lattice vectors:
[  87.3039  0  0  ]
[  0  87.3039  0  ]
[  0  0  77.1004  ]

---------- Setting up coulomb interaction ----------
Setting up double-sized grid for truncated Coulomb potentials:
R = 
[      7.93671            0            0  ]
[            0      7.93671            0  ]
[            0            0      154.201  ]
unit cell volume = 9713.33
G =
[   0.791661          0          0  ]
[         -0   0.791661          0  ]
[          0         -0  0.0407468  ]
Chosen fftbox size, S = [  32  32  640  ]
Integer grid location selected as the embedding center:
   Grid: [  0  0  160  ]
   Lattice: [  0  0  0.5  ]
   Cartesian: [  0  0  38.5502  ]
Constructing Wigner-Seitz cell: 6 faces (6 quadrilaterals, 0 hexagons)
Range-separation parameter for embedded mesh potentials due to point charges: 0.628283 bohrs.
Initialized slab truncation along lattice direction 001

---------- Setting up 2D ewald sum ----------
Optimum gaussian width for ewald sums = 4.734710 bohr.
Real space sums over 225 unit cells with max indices [  7  7  0  ]
Reciprocal space sums over 81 terms with max indices [  4  4  0  ]

---------- Allocating electronic variables ----------
Initializing wave functions:  reading from 'X.wfns'


---- Citations for features of the code used in this run ----

   Software package:
      R. Sundararaman, K. Letchworth-Weaver, K.A. Schwarz, D. Gunceler, Y. Ozhabes and T.A. Arias, 'JDFTx: software for joint density-functional theory', SoftwareX 6, 278 (2017)

   gga-PBE exchange-correlation functional:
      J.P. Perdew, K. Burke and M. Ernzerhof, Phys. Rev. Lett. 77, 3865 (1996)

   Pseudopotentials:
      M Schlipf and F Gygi, Comput. Phys. Commun. 196, 36 (2015)

   Truncated Coulomb potentials:
      R. Sundararaman and T.A. Arias, Phys. Rev. B 87, 165122 (2013)

   Total energy minimization with Auxiliary Hamiltonian:
      C. Freysoldt, S. Boeck, and J. Neugebauer, Phys. Rev. B 79, 241103(R) (2009)

   Linear-tetrahedron sampling for density of states:
      G. Lehmann and M. Taut, Phys. status solidi (b) 54, 469 (1972)

This list may not be complete. Please suggest additional citations or
report any other bugs at https://github.com/shankar1729/jdftx/issues

Initialization completed successfully at t[s]:      0.48


Setting the auxilliary hamiltonian equal to the subspace hamiltonian.

-------- Electronic minimization -----------
	FillingsUpdate:  mu: -0.107001963  nElectrons: 81.000000
ElecMinimize: Iter:   0  F: -375.679972060642456  |grad|_K:  1.189e-03  alpha:  1.000e+00
	FillingsUpdate:  mu: -0.159056025  nElectrons: 81.000000
	SubspaceRotationAdjust: set factor to 0.995
ElecMinimize: Iter:   1  F: -382.608980553089907  |grad|_K:  3.712e-04  alpha:  2.749e-01  linmin:  1.689e-02  t[s]:      4.87
	FillingsUpdate:  mu: +0.112400091  nElectrons: 81.000000
	SubspaceRotationAdjust: set factor to 0.596
ElecMinimize: Iter:   2  F: -383.259593316530356  |grad|_K:  2.265e-04  alpha:  2.644e-01  linmin: -1.505e-04  t[s]:      6.99
	FillingsUpdate:  mu: -0.109155650  nElectrons: 81.000000
	SubspaceRotationAdjust: set factor to 0.409
ElecMinimize: Iter:   3  F: -383.331471358503109  |grad|_K:  6.980e-05  alpha:  6.488e-02  linmin: -1.943e-03  t[s]:      9.05
ElecMinimize: 	Predicted alpha/alphaT>3.000000, increasing alphaT to 1.946467e-01.
	FillingsUpdate:  mu: -0.161028064  nElectrons: 81.000000
	SubspaceRotationAdjust: set factor to 0.291
ElecMinimize: Iter:   4  F: -383.356404827508015  |grad|_K:  5.092e-05  alpha:  2.426e-01  linmin:  1.376e-04  t[s]:     11.75
	FillingsUpdate:  mu: -0.099048763  nElectrons: 81.000000
	SubspaceRotationAdjust: set factor to 0.305
ElecMinimize: Iter:   5  F: -383.364846942640952  |grad|_K:  2.571e-05  alpha:  1.656e-01  linmin:  4.427e-06  t[s]:     13.80
	FillingsUpdate:  mu: -0.077890095  nElectrons: 81.000000
	SubspaceRotationAdjust: set factor to 0.273
ElecMinimize: Iter:   6  F: -383.367833455911978  |grad|_K:  1.848e-05  alpha:  2.306e-01  linmin:  4.837e-05  t[s]:     15.86
	FillingsUpdate:  mu: -0.099676134  nElectrons: 81.000000

Dumping 'X.fillings' ... done
Dumping 'X.wfns' ... done
Dumping 'X.force' ... done
Dumping 'X.eigenvals' ... done
	SubspaceRotationAdjust: set factor to 0.303
ElecMinimize: Iter:   7  F: -383.369492474810897  |grad|_K:  1.436e-05  alpha:  2.485e-01  linmin:  3.640e-05  t[s]:     18.10
	FillingsUpdate:  mu: -0.115763504  nElectrons: 81.000000
	SubspaceRotationAdjust: set factor to 0.296
ElecMinimize: Iter:   8  F: -383.370746076301032  |grad|_K:  1.432e-05  alpha:  3.125e-01  linmin:  4.701e-05  t[s]:     20.15
	FillingsUpdate:  mu: -0.101637847  nElectrons: 81.000000
	SubspaceRotationAdjust: set factor to 0.329
ElecMinimize: Iter:   9  F: -383.371874706588244  |grad|_K:  1.215e-05  alpha:  2.827e-01  linmin:  1.518e-05  t[s]:     22.20
	FillingsUpdate:  mu: -0.090175475  nElectrons: 81.000000
	SubspaceRotationAdjust: set factor to 0.323
ElecMinimize: Iter:  10  F: -383.372642313557549  |grad|_K:  1.051e-05  alpha:  2.662e-01  linmin:  1.841e-05  t[s]:     24.25
	FillingsUpdate:  mu: -0.100033155  nElectrons: 81.000000
	SubspaceRotationAdjust: set factor to 0.349
ElecMinimize: Iter:  11  F: -383.373128579858474  |grad|_K:  7.509e-06  alpha:  2.250e-01  linmin:  1.023e-05  t[s]:     26.31
	FillingsUpdate:  mu: -0.106796680  nElectrons: 81.000000
	SubspaceRotationAdjust: set factor to 0.332
ElecMinimize: Iter:  12  F: -383.373398491578314  |grad|_K:  6.198e-06  alpha:  2.447e-01  linmin:  1.650e-05  t[s]:     28.38
	FillingsUpdate:  mu: -0.101141771  nElectrons: 81.000000
	SubspaceRotationAdjust: set factor to 0.342
ElecMinimize: Iter:  13  F: -383.373554196593545  |grad|_K:  4.300e-06  alpha:  2.070e-01  linmin:  4.557e-06  t[s]:     30.54
	FillingsUpdate:  mu: -0.097156533  nElectrons: 81.000000
	SubspaceRotationAdjust: set factor to 0.336
ElecMinimize: Iter:  14  F: -383.373651110869673  |grad|_K:  4.044e-06  alpha:  2.673e-01  linmin:  7.737e-06  t[s]:     32.58
	FillingsUpdate:  mu: -0.101140325  nElectrons: 81.000000

Dumping 'X.fillings' ... done
Dumping 'X.wfns' ... done
Dumping 'X.force' ... done
Dumping 'X.eigenvals' ... done
	SubspaceRotationAdjust: set factor to 0.331
ElecMinimize: Iter:  15  F: -383.373731110316498  |grad|_K:  3.437e-06  alpha:  2.495e-01  linmin:  7.669e-06  t[s]:     34.88
	FillingsUpdate:  mu: -0.104246328  nElectrons: 81.000000
	SubspaceRotationAdjust: set factor to 0.346
ElecMinimize: Iter:  16  F: -383.373799842716835  |grad|_K:  3.425e-06  alpha:  2.968e-01  linmin:  1.714e-05  t[s]:     36.93
	FillingsUpdate:  mu: -0.100780491  nElectrons: 81.000000
	SubspaceRotationAdjust: set factor to 0.34
ElecMinimize: Iter:  17  F: -383.373857391032402  |grad|_K:  2.902e-06  alpha:  2.502e-01  linmin:  1.105e-07  t[s]:     38.98
	FillingsUpdate:  mu: -0.098405749  nElectrons: 81.000000
	SubspaceRotationAdjust: set factor to 0.365
ElecMinimize: Iter:  18  F: -383.373906156043290  |grad|_K:  2.875e-06  alpha:  2.950e-01  linmin: -3.955e-06  t[s]:     41.04
	FillingsUpdate:  mu: -0.101649840  nElectrons: 81.000000
	SubspaceRotationAdjust: set factor to 0.348
ElecMinimize: Iter:  19  F: -383.373945786267200  |grad|_K:  2.417e-06  alpha:  2.443e-01  linmin: -9.743e-07  t[s]:     43.09
	FillingsUpdate:  mu: -0.103697376  nElectrons: 81.000000
	SubspaceRotationAdjust: set factor to 0.379
ElecMinimize: Iter:  20  F: -383.373980039213393  |grad|_K:  2.380e-06  alpha:  2.988e-01  linmin: -8.513e-07  t[s]:     45.15
	FillingsUpdate:  mu: -0.101065340  nElectrons: 81.000000
	SubspaceRotationAdjust: set factor to 0.342
ElecMinimize: Iter:  21  F: -383.374006486097926  |grad|_K:  1.970e-06  alpha:  2.381e-01  linmin: -1.221e-06  t[s]:     47.20
	FillingsUpdate:  mu: -0.099769137  nElectrons: 81.000000
	SubspaceRotationAdjust: set factor to 0.381
ElecMinimize: Iter:  22  F: -383.374029327604717  |grad|_K:  1.849e-06  alpha:  2.998e-01  linmin: -1.676e-06  t[s]:     49.26
	FillingsUpdate:  mu: -0.101956514  nElectrons: 81.000000

Dumping 'X.fillings' ... done
Dumping 'X.wfns' ... done
Dumping 'X.force' ... done
Dumping 'X.eigenvals' ... done
	SubspaceRotationAdjust: set factor to 0.328
ElecMinimize: Iter:  23  F: -383.374045070490467  |grad|_K:  1.479e-06  alpha:  2.346e-01  linmin: -5.264e-07  t[s]:     51.54
	FillingsUpdate:  mu: -0.102672730  nElectrons: 81.000000
	SubspaceRotationAdjust: set factor to 0.375
ElecMinimize: Iter:  24  F: -383.374058046855907  |grad|_K:  1.355e-06  alpha:  3.021e-01  linmin: -1.005e-06  t[s]:     53.67
	FillingsUpdate:  mu: -0.100974195  nElectrons: 81.000000
	SubspaceRotationAdjust: set factor to 0.315
ElecMinimize: Iter:  25  F: -383.374067668624150  |grad|_K:  1.189e-06  alpha:  2.672e-01  linmin: -6.127e-07  t[s]:     55.77
	FillingsUpdate:  mu: -0.100838694  nElectrons: 81.000000
	SubspaceRotationAdjust: set factor to 0.375
ElecMinimize: Iter:  26  F: -383.374076463596168  |grad|_K:  1.071e-06  alpha:  3.169e-01  linmin:  2.419e-06  t[s]:     57.83
	FillingsUpdate:  mu: -0.102222228  nElectrons: 81.000000
	SubspaceRotationAdjust: set factor to 0.323
ElecMinimize: Iter:  27  F: -383.374083749649344  |grad|_K:  1.077e-06  alpha:  3.238e-01  linmin:  6.746e-06  t[s]:     59.89
	FillingsUpdate:  mu: -0.101649540  nElectrons: 81.000000
	SubspaceRotationAdjust: set factor to 0.35
ElecMinimize: Iter:  28  F: -383.374091292309799  |grad|_K:  9.760e-07  alpha:  3.312e-01  linmin:  1.961e-06  t[s]:     61.95
	FillingsUpdate:  mu: -0.100686675  nElectrons: 81.000000
	SubspaceRotationAdjust: set factor to 0.336
ElecMinimize: Iter:  29  F: -383.374098365196346  |grad|_K:  1.001e-06  alpha:  3.785e-01  linmin:  5.662e-06  t[s]:     64.01
	FillingsUpdate:  mu: -0.101729684  nElectrons: 81.000000
	SubspaceRotationAdjust: set factor to 0.299
ElecMinimize: Iter:  30  F: -383.374104200199895  |grad|_K:  8.742e-07  alpha:  2.966e-01  linmin:  1.009e-06  t[s]:     66.07
	FillingsUpdate:  mu: -0.101974996  nElectrons: 81.000000

Dumping 'X.fillings' ... done
Dumping 'X.wfns' ... done
Dumping 'X.force' ... done
Dumping 'X.eigenvals' ... done
	SubspaceRotationAdjust: set factor to 0.327
ElecMinimize: Iter:  31  F: -383.374109916196232  |grad|_K:  8.254e-07  alpha:  3.813e-01  linmin:  1.629e-06  t[s]:     68.32
	FillingsUpdate:  mu: -0.101008627  nElectrons: 81.000000
	SubspaceRotationAdjust: set factor to 0.279
ElecMinimize: Iter:  32  F: -383.374114092903369  |grad|_K:  7.289e-07  alpha:  3.124e-01  linmin:  2.767e-06  t[s]:     70.24
	FillingsUpdate:  mu: -0.101215957  nElectrons: 81.000000
	SubspaceRotationAdjust: set factor to 0.301
ElecMinimize: Iter:  33  F: -383.374117823698043  |grad|_K:  6.530e-07  alpha:  3.580e-01  linmin:  1.322e-06  t[s]:     72.16
	FillingsUpdate:  mu: -0.101798413  nElectrons: 81.000000
	SubspaceRotationAdjust: set factor to 0.283
ElecMinimize: Iter:  34  F: -383.374120872002322  |grad|_K:  6.275e-07  alpha:  3.644e-01  linmin:  3.106e-06  t[s]:     74.07
	FillingsUpdate:  mu: -0.101277849  nElectrons: 81.000000
	SubspaceRotationAdjust: set factor to 0.275
ElecMinimize: Iter:  35  F: -383.374123708838681  |grad|_K:  5.856e-07  alpha:  3.673e-01  linmin:  4.501e-06  t[s]:     75.99
	FillingsUpdate:  mu: -0.101023745  nElectrons: 81.000000
	SubspaceRotationAdjust: set factor to 0.29
ElecMinimize: Iter:  36  F: -383.374126310001998  |grad|_K:  5.725e-07  alpha:  3.867e-01  linmin:  8.021e-06  t[s]:     77.91
	FillingsUpdate:  mu: -0.101607276  nElectrons: 81.000000
	SubspaceRotationAdjust: set factor to 0.266
ElecMinimize: Iter:  37  F: -383.374128764375769  |grad|_K:  5.533e-07  alpha:  3.817e-01  linmin:  1.181e-06  t[s]:     79.83
	FillingsUpdate:  mu: -0.101542717  nElectrons: 81.000000
	SubspaceRotationAdjust: set factor to 0.286
ElecMinimize: Iter:  38  F: -383.374131044506669  |grad|_K:  5.180e-07  alpha:  3.796e-01  linmin:  1.403e-06  t[s]:     81.79
	FillingsUpdate:  mu: -0.101081071  nElectrons: 81.000000

Dumping 'X.fillings' ... done
Dumping 'X.wfns' ... done
Dumping 'X.force' ... done
Dumping 'X.eigenvals' ... done
	SubspaceRotationAdjust: set factor to 0.267
ElecMinimize: Iter:  39  F: -383.374133044966300  |grad|_K:  4.885e-07  alpha:  3.801e-01  linmin: -2.121e-06  t[s]:     84.04
	FillingsUpdate:  mu: -0.101379479  nElectrons: 81.000000
	SubspaceRotationAdjust: set factor to 0.266
ElecMinimize: Iter:  40  F: -383.374134736633550  |grad|_K:  4.336e-07  alpha:  3.612e-01  linmin:  6.222e-07  t[s]:     86.05
	FillingsUpdate:  mu: -0.101599288  nElectrons: 81.000000
	SubspaceRotationAdjust: set factor to 0.268
ElecMinimize: Iter:  41  F: -383.374136098633130  |grad|_K:  3.895e-07  alpha:  3.692e-01  linmin: -3.586e-07  t[s]:     88.05
	FillingsUpdate:  mu: -0.101266359  nElectrons: 81.000000
	SubspaceRotationAdjust: set factor to 0.25
ElecMinimize: Iter:  42  F: -383.374137157107668  |grad|_K:  3.424e-07  alpha:  3.557e-01  linmin: -1.003e-06  t[s]:     90.06
	FillingsUpdate:  mu: -0.101236558  nElectrons: 81.000000
	SubspaceRotationAdjust: set factor to 0.264
ElecMinimize: Iter:  43  F: -383.374137999389177  |grad|_K:  3.021e-07  alpha:  3.661e-01  linmin: -1.071e-06  t[s]:     92.07
	FillingsUpdate:  mu: -0.101492424  nElectrons: 81.000000
	SubspaceRotationAdjust: set factor to 0.248
ElecMinimize: Iter:  44  F: -383.374138648746737  |grad|_K:  2.698e-07  alpha:  3.626e-01  linmin:  4.149e-06  t[s]:     94.08
	FillingsUpdate:  mu: -0.101413205  nElectrons: 81.000000
	SubspaceRotationAdjust: set factor to 0.259
ElecMinimize: Iter:  45  F: -383.374139192232406  |grad|_K:  2.472e-07  alpha:  3.806e-01  linmin: -3.146e-06  t[s]:     96.10
	FillingsUpdate:  mu: -0.101247825  nElectrons: 81.000000
	SubspaceRotationAdjust: set factor to 0.253
ElecMinimize: Iter:  46  F: -383.374139649078813  |grad|_K:  2.287e-07  alpha:  3.811e-01  linmin: -6.834e-06  t[s]:     98.10
	FillingsUpdate:  mu: -0.101385972  nElectrons: 81.000000

Dumping 'X.fillings' ... done
Dumping 'X.wfns' ... done
Dumping 'X.force' ... done
Dumping 'X.eigenvals' ... done
	SubspaceRotationAdjust: set factor to 0.252
ElecMinimize: Iter:  47  F: -383.374140039894201  |grad|_K:  2.070e-07  alpha:  3.806e-01  linmin:  4.974e-06  t[s]:    100.35
	FillingsUpdate:  mu: -0.101457690  nElectrons: 81.000000
	SubspaceRotationAdjust: set factor to 0.259
ElecMinimize: Iter:  48  F: -383.374140357824501  |grad|_K:  1.881e-07  alpha:  3.781e-01  linmin: -5.206e-06  t[s]:    102.36
	FillingsUpdate:  mu: -0.101319029  nElectrons: 81.000000
	SubspaceRotationAdjust: set factor to 0.248
ElecMinimize: Iter:  49  F: -383.374140611558857  |grad|_K:  1.637e-07  alpha:  3.654e-01  linmin: -2.247e-07  t[s]:    104.36
	FillingsUpdate:  mu: -0.101321345  nElectrons: 81.000000
	SubspaceRotationAdjust: set factor to 0.258
ElecMinimize: Iter:  50  F: -383.374140809360085  |grad|_K:  1.469e-07  alpha:  3.763e-01  linmin: -8.006e-06  t[s]:    106.37
	FillingsUpdate:  mu: -0.101421840  nElectrons: 81.000000
	SubspaceRotationAdjust: set factor to 0.249
ElecMinimize: Iter:  51  F: -383.374140965726212  |grad|_K:  1.312e-07  alpha:  3.692e-01  linmin: -1.068e-05  t[s]:    108.35
	FillingsUpdate:  mu: -0.101373218  nElectrons: 81.000000
	SubspaceRotationAdjust: set factor to 0.255
ElecMinimize: Iter:  52  F: -383.374141103224304  |grad|_K:  1.263e-07  alpha:  4.070e-01  linmin:  1.100e-07  t[s]:    110.46
	FillingsUpdate:  mu: -0.101310814  nElectrons: 81.000000
	SubspaceRotationAdjust: set factor to 0.259
ElecMinimize: Iter:  53  F: -383.374141233777266  |grad|_K:  1.284e-07  alpha:  4.175e-01  linmin: -1.242e-05  t[s]:    112.50
	FillingsUpdate:  mu: -0.101407061  nElectrons: 81.000000
	SubspaceRotationAdjust: set factor to 0.259
ElecMinimize: Iter:  54  F: -383.374141396779009  |grad|_K:  1.513e-07  alpha:  5.013e-01  linmin: -5.513e-05  t[s]:    114.51
	FillingsUpdate:  mu: -0.101443984  nElectrons: 81.000000

Dumping 'X.fillings' ... done
Dumping 'X.wfns' ... done
Dumping 'X.force' ... done
Dumping 'X.eigenvals' ... done
	SubspaceRotationAdjust: set factor to 0.269
ElecMinimize: Iter:  55  F: -383.374141752006835  |grad|_K:  2.672e-07  alpha:  7.455e-01  linmin: -2.987e-04  t[s]:    116.82
ElecMinimize: 	Wrong curvature in test step, increasing alphaT to 2.236411e+00.
	FillingsUpdate:  mu: -0.101171773  nElectrons: 81.000000
	SubspaceRotationAdjust: set factor to 0.277
ElecMinimize: Iter:  56  F: -383.374147398657158  |grad|_K:  5.333e-07  alpha: -2.738e-01  linmin: -5.310e-03  t[s]:    118.71
	FillingsUpdate:  mu: -0.101167391  nElectrons: 81.000000
	SubspaceRotationAdjust: set factor to 0.304
ElecMinimize: Iter:  57  F: -383.374147403728955  |grad|_K:  5.377e-07  alpha:  7.339e-03  linmin: -5.500e-03  t[s]:    120.74
ElecMinimize: 	Predicted alpha/alphaT>3.000000, increasing alphaT to 2.201763e-02.
ElecMinimize: 	Predicted alpha/alphaT>3.000000, increasing alphaT to 6.605290e-02.
	FillingsUpdate:  mu: -0.101090120  nElectrons: 81.000000
	SubspaceRotationAdjust: set factor to 0.333
ElecMinimize: Iter:  58  F: -383.374149309705388  |grad|_K:  5.103e-07  alpha:  8.334e-02  linmin:  1.035e-02  t[s]:    124.04
ElecMinimize: 	Bad step direction: g.d > 0.
ElecMinimize: 	Undoing step.
ElecMinimize: 	Step failed: resetting search direction.
	FillingsUpdate:  mu: -0.101090120  nElectrons: 81.000000
	SubspaceRotationAdjust: set factor to 0.439
ElecMinimize: Iter:  59  F: -383.374149309703625  |grad|_K:  5.168e-07  alpha:  0.000e+00
ElecMinimize: 	Predicted alpha/alphaT>3.000000, increasing alphaT to 2.500283e-01.
	FillingsUpdate:  mu: -0.101926584  nElectrons: 81.000000
	SubspaceRotationAdjust: set factor to 0.326
ElecMinimize: Iter:  60  F: -383.374151251927287  |grad|_K:  5.521e-07  alpha:  3.704e-01  linmin: -7.868e-05  t[s]:    128.07
	FillingsUpdate:  mu: -0.101060560  nElectrons: 81.000000
	SubspaceRotationAdjust: set factor to 0.227
ElecMinimize: Iter:  61  F: -383.374153214235491  |grad|_K:  4.485e-07  alpha:  3.279e-01  linmin: -4.097e-05  t[s]:    130.10
	FillingsUpdate:  mu: -0.101352575  nElectrons: 81.000000
	SubspaceRotationAdjust: set factor to 0.244
ElecMinimize: Iter:  62  F: -383.374155011000767  |grad|_K:  3.419e-07  alpha:  4.521e-01  linmin: -2.086e-04  t[s]:    132.13
	FillingsUpdate:  mu: -0.101578627  nElectrons: 81.000000

Dumping 'X.fillings' ... done
Dumping 'X.wfns' ... done
Dumping 'X.force' ... done
Dumping 'X.eigenvals' ... done
	SubspaceRotationAdjust: set factor to 0.24
ElecMinimize: Iter:  63  F: -383.374156087099209  |grad|_K:  2.851e-07  alpha:  4.634e-01  linmin: -8.416e-05  t[s]:    134.39
	FillingsUpdate:  mu: -0.101225158  nElectrons: 81.000000
	SubspaceRotationAdjust: set factor to 0.2
ElecMinimize: Iter:  64  F: -383.374156777411486  |grad|_K:  2.253e-07  alpha:  4.313e-01  linmin: -2.133e-05  t[s]:    136.42
	FillingsUpdate:  mu: -0.101425609  nElectrons: 81.000000
	SubspaceRotationAdjust: set factor to 0.194
ElecMinimize: Iter:  65  F: -383.374157431364949  |grad|_K:  2.425e-07  alpha:  6.553e-01  linmin: -2.518e-05  t[s]:    138.45
	FillingsUpdate:  mu: -0.101436997  nElectrons: 81.000000
	SubspaceRotationAdjust: set factor to 0.206
ElecMinimize: Iter:  66  F: -383.374158084877365  |grad|_K:  2.322e-07  alpha:  5.658e-01  linmin: -1.332e-05  t[s]:    140.48
	FillingsUpdate:  mu: -0.101267900  nElectrons: 81.000000
	SubspaceRotationAdjust: set factor to 0.21
ElecMinimize: Iter:  67  F: -383.374158690291040  |grad|_K:  2.400e-07  alpha:  5.722e-01  linmin:  3.576e-05  t[s]:    142.52
	FillingsUpdate:  mu: -0.101399788  nElectrons: 81.000000
	SubspaceRotationAdjust: set factor to 0.222
ElecMinimize: Iter:  68  F: -383.374159368171206  |grad|_K:  2.328e-07  alpha:  6.007e-01  linmin:  6.063e-05  t[s]:    144.55
	FillingsUpdate:  mu: -0.101415337  nElectrons: 81.000000
	SubspaceRotationAdjust: set factor to 0.241
ElecMinimize: Iter:  69  F: -383.374159936089200  |grad|_K:  2.153e-07  alpha:  5.348e-01  linmin:  5.723e-05  t[s]:    146.61
	FillingsUpdate:  mu: -0.101335365  nElectrons: 81.000000
	SubspaceRotationAdjust: set factor to 0.255
ElecMinimize: Iter:  70  F: -383.374160398021502  |grad|_K:  1.841e-07  alpha:  5.085e-01  linmin:  8.538e-05  t[s]:    148.64
	FillingsUpdate:  mu: -0.101416077  nElectrons: 81.000000

Dumping 'X.fillings' ... done
Dumping 'X.wfns' ... done
Dumping 'X.force' ... done
Dumping 'X.eigenvals' ... done
	SubspaceRotationAdjust: set factor to 0.266
ElecMinimize: Iter:  71  F: -383.374160705351699  |grad|_K:  1.507e-07  alpha:  4.637e-01  linmin:  3.932e-05  t[s]:    150.91
	FillingsUpdate:  mu: -0.101354645  nElectrons: 81.000000
	SubspaceRotationAdjust: set factor to 0.272
ElecMinimize: Iter:  72  F: -383.374160926816671  |grad|_K:  1.277e-07  alpha:  4.982e-01  linmin:  8.397e-05  t[s]:    152.94
	FillingsUpdate:  mu: -0.101378633  nElectrons: 81.000000
	SubspaceRotationAdjust: set factor to 0.277
ElecMinimize: Iter:  73  F: -383.374161071220897  |grad|_K:  1.035e-07  alpha:  4.534e-01  linmin:  2.598e-05  t[s]:    154.98
	FillingsUpdate:  mu: -0.101395472  nElectrons: 81.000000
	SubspaceRotationAdjust: set factor to 0.282
ElecMinimize: Iter:  74  F: -383.374161176671407  |grad|_K:  9.201e-08  alpha:  5.033e-01  linmin:  2.298e-05  t[s]:    157.01
	FillingsUpdate:  mu: -0.101336918  nElectrons: 81.000000
	SubspaceRotationAdjust: set factor to 0.279
ElecMinimize: Iter:  75  F: -383.374161259028597  |grad|_K:  8.352e-08  alpha:  4.964e-01  linmin:  1.842e-05  t[s]:    159.05
	FillingsUpdate:  mu: -0.101409418  nElectrons: 81.000000
	SubspaceRotationAdjust: set factor to 0.273
ElecMinimize: Iter:  76  F: -383.374161332369795  |grad|_K:  8.229e-08  alpha:  5.366e-01  linmin:  1.748e-05  t[s]:    161.08
ElecMinimize: Converged (|Delta F|<1.000000e-07 for 2 iters).
Setting wave functions to eigenvectors of Hamiltonian

# Ionic positions in lattice coordinates:
ion Na   0.000000000000000   0.000000000000000   0.294120000000000 1
ion Na   0.500000000000000   0.500000000000000   0.345590000000000 1
ion Na   0.000000000000000   0.000000000000000   0.397060000000000 1
ion Na   0.500000000000000   0.500000000000000   0.448530000000000 1
ion Na   0.000000000000000   0.000000000000000   0.500000000000000 1
ion Na   0.500000000000000   0.500000000000000   0.551470000000000 1
ion Na   0.000000000000000   0.000000000000000   0.602940000000000 1
ion Na   0.500000000000000   0.500000000000000   0.654410000000000 1
ion Na   0.000000000000000   0.000000000000000   0.705880000000000 1

# Forces in Lattice coordinates:
force Na  -0.000000000000000   0.000000000000000  -0.034239187241239 1
force Na   0.000000000000000  -0.000000000000000   0.013666504225046 1
force Na   0.000000000000000   0.000000000000000  -0.004932947058888 1
force Na   0.000000000000000  -0.000000000000000  -0.004163682188287 1
force Na   0.000000000000000   0.000000000000000   0.000000000000000 1
force Na   0.000000000000000   0.000000000000000   0.004163682187832 1
force Na   0.000000000000000  -0.000000000000000   0.004932947058434 1
force Na   0.000000000000000   0.000000000000000  -0.013666504224137 1
force Na  -0.000000000000000  -0.000000000000000   0.034239187240329 1

# Energy components:
   Eewald =    -4037.3878824492776403
       EH =    -3730.6347978481881000
     Eloc =     7362.2106214155646740
      Enl =     -116.3369442334203967
   Epulay =        0.0000078086142770
      Exc =      -56.3381520055120077
       KE =      195.1491176961852432
-------------------------------------
     Etot =     -383.3380296160338503
       TS =        0.0361317163359602
-------------------------------------
        F =     -383.3741613323697948

IonicMinimize: Iter:   0  F: -383.374161332369795  |grad|_K:  1.321e-04  t[s]:    161.42
IonicMinimize: None of the convergence criteria satisfied after 0 iterations.

#--- Lowdin population analysis ---
# oxidation-state Na +0.076 +0.051 +0.048 +0.056 +0.053 +0.056 +0.048 +0.051 +0.076


Dumping 'X.fillings' ... done
Dumping 'X.wfns' ... done
Dumping 'X.ionpos' ... done
Dumping 'X.lattice' ... done
Dumping 'X.n' ... done
Dumping 'X.eigenvals' ... done
Dumping 'X.eigStats' ... 
	eMin: -2.063312 at state 0 ( [ +0.000000 +0.000000 +0.000000 ] spin 0 )
	HOMO: -0.101481 at state 17 ( [ +0.272727 +0.454545 +0.000000 ] spin 0 )
	mu  : -0.101409
	LUMO: -0.100019 at state 5 ( [ +0.000000 +0.454545 +0.000000 ] spin 0 )
	eMax: +0.007338 at state 11 ( [ +0.181818 +0.181818 +0.000000 ] spin 0 )
	HOMO-LUMO gap: +0.001462
	Optical gap  : +0.006827 at state 10 ( [ +0.090909 +0.454545 +0.000000 ] spin 0 )
Dumping 'X.dos' ... done.
End date and time: Thu Nov  9 00:11:47 2023  (Duration: 0-0:02:41.90)
Done!

*************** JDFTx 1.7.0  ***************

Start date and time: Thu Nov  9 00:11:49 2023
Executable jdftx with command-line: -m -i X.in -o X.out
Running on hosts (process indices):  ac0170 (0-20)
Divided in process groups (process indices):  0 (0)  1 (1)  2 (2)  3 (3)  4 (4)  5 (5)  6 (6)  7 (7)  8 (8)  9 (9)  10 (10)  11 (11)  12 (12)  13 (13)  14 (14)  15 (15)  16 (16)  17 (17)  18 (18)  19 (19)  20 (20)
Resource initialization completed at t[s]:      0.02
Run totals: 21 processes, 21 threads, 0 GPUs


Input parsed successfully to the following command list (including defaults):

basis kpoint-dependent
cache-projectors no
coords-type Lattice
core-overlap-check vector
coulomb-interaction Slab 001
coulomb-truncation-embed 0 0 0.5
davidson-band-ratio 1.1
density-of-states Etol 1.000000e-06 Esigma 0.000000e+00 \
		Complete \
	Total \
		Occupied \
	Total
dump End State IonicPositions Lattice ElecDensity CoreDensity EigStats DOS
dump Electronic State Forces
dump Ionic State IonicPositions Forces Lattice DOS
dump-interval Electronic 8
dump-interval Ionic 4
dump-name X.$var
elec-cutoff 30
elec-eigen-algo Davidson
elec-ex-corr gga-PBE
elec-smearing Fermi 0.0095
electronic-minimize  \
	dirUpdateScheme      FletcherReeves \
	linminMethod         DirUpdateRecommended \
	nIterations          2000 \
	history              15 \
	knormThreshold       0 \
	energyDiffThreshold  1e-07 \
	nEnergyDiff          2 \
	alphaTstart          1 \
	alphaTmin            1e-10 \
	updateTestStepSize   yes \
	alphaTreduceFactor   0.1 \
	alphaTincreaseFactor 3 \
	nAlphaAdjustMax      3 \
	wolfeEnergy          0.0001 \
	wolfeGradient        0.9 \
	fdTest               no
exchange-regularization WignerSeitzTruncated
fluid None
fluid-ex-corr (null) lda-PZ
fluid-gummel-loop 10 1.000000e-05
fluid-minimize  \
	dirUpdateScheme      PolakRibiere \
	linminMethod         DirUpdateRecommended \
	nIterations          100 \
	history              15 \
	knormThreshold       0 \
	energyDiffThreshold  0 \
	nEnergyDiff          2 \
	alphaTstart          1 \
	alphaTmin            1e-10 \
	updateTestStepSize   yes \
	alphaTreduceFactor   0.1 \
	alphaTincreaseFactor 3 \
	nAlphaAdjustMax      3 \
	wolfeEnergy          0.0001 \
	wolfeGradient        0.9 \
	fdTest               no
fluid-solvent H2O 55.338 ScalarEOS \
	epsBulk 78.4 \
	pMol 0.92466 \
	epsInf 1.77 \
	Pvap 1.06736e-10 \
	sigmaBulk 4.62e-05 \
	Rvdw 2.61727 \
	Res 1.42 \
	tauNuc 343133 \
	poleEl 15 7 1
forces-output-coords Positions
ion Na   0.000000000000000   0.000000000000000   0.294120000000000 1
ion Na   0.500000000000000   0.500000000000000   0.345590000000000 1
ion Na   0.000000000000000   0.000000000000000   0.397060000000000 1
ion Na   0.500000000000000   0.500000000000000   0.448530000000000 1
ion Na   0.000000000000000   0.000000000000000   0.500000000000000 1
ion Na   0.500000000000000   0.500000000000000   0.551470000000000 1
ion Na   0.000000000000000   0.000000000000000   0.602940000000000 1
ion Na   0.500000000000000   0.500000000000000   0.654410000000000 1
ion Na   0.000000000000000   0.000000000000000   0.705880000000000 1
ion-species SG15/$ID_ONCV_PBE.upf
ion-width 0
ionic-minimize  \
	dirUpdateScheme      L-BFGS \
	linminMethod         DirUpdateRecommended \
	nIterations          0 \
	history              15 \
	knormThreshold       0.0001 \
	energyDiffThreshold  1e-06 \
	nEnergyDiff          2 \
	alphaTstart          1 \
	alphaTmin            1e-10 \
	updateTestStepSize   yes \
	alphaTreduceFactor   0.1 \
	alphaTincreaseFactor 3 \
	nAlphaAdjustMax      3 \
	wolfeEnergy          0.0001 \
	wolfeGradient        0.9 \
	fdTest               no
kpoint   0.000000000000   0.000000000000   0.000000000000  1.00000000000000
kpoint-folding 11 11 1 
latt-move-scale 1 1 1
latt-scale 1 1 1 
lattice  \
	   7.936714821600003   -0.000000000000000   -0.000000000000000  \
	   0.000000000000000    7.936714821600003   -0.000000000000000  \
	   0.000000000000000    0.000000000000000   77.100417081000003 
lattice-minimize  \
	dirUpdateScheme      L-BFGS \
	linminMethod         DirUpdateRecommended \
	nIterations          0 \
	history              15 \
	knormThreshold       0 \
	energyDiffThreshold  1e-06 \
	nEnergyDiff          2 \
	alphaTstart          1 \
	alphaTmin            1e-10 \
	updateTestStepSize   yes \
	alphaTreduceFactor   0.1 \
	alphaTincreaseFactor 3 \
	nAlphaAdjustMax      3 \
	wolfeEnergy          0.0001 \
	wolfeGradient        0.9 \
	fdTest               no
lcao-params -1 1e-06 0.0095
pcm-variant GLSSA13
spintype no-spin
subspace-rotation-factor 1 yes
symmetries automatic
symmetry-threshold 0.0001
wavefunction read X.wfns 45 20.000000



---------- Setting up symmetries ----------

Found 16 point-group symmetries of the bravais lattice
Found 16 space-group symmetries with basis
Applied RMS atom displacement 0 bohrs to make symmetries exact.

---------- Initializing the Grid ----------
R = 
[      7.93671            0            0  ]
[            0      7.93671            0  ]
[            0            0      77.1004  ]
unit cell volume = 4856.67
G =
[   0.791661          0          0  ]
[         -0   0.791661          0  ]
[          0         -0  0.0814935  ]
Minimum fftbox size, Smin = [  40  40  384  ]
Chosen fftbox size, S = [  40  40  384  ]

---------- Exchange Correlation functional ----------
Initalized PBE GGA exchange.
Initalized PBE GGA correlation.

---------- Setting up pseudopotentials ----------
Width of ionic core gaussian charges (only for fluid interactions / plotting) set to 0

Reading pseudopotential file '/net/software/testing/software/jdftx/1.7.0-foss-2021b-mkl/share/jdftx/pseudopotentials/SG15/Na_ONCV_PBE.upf':
  'Na' pseudopotential, 'PBE' functional
  Generated using ONCVPSP code by D. R. Hamann
  Author: Martin Schlipf and Francois Gygi  Date: 150915.
  9 valence electrons, 3 orbitals, 4 projectors, 1992 radial grid points, with lMax = 1
  Transforming local potential to a uniform radial grid of dG=0.02 with 1371 points.
  Transforming nonlocal projectors to a uniform radial grid of dG=0.02 with 528 points.
    2S    l: 0   occupation:  2.0   eigenvalue: -2.085640
    2P    l: 1   occupation:  6.0   eigenvalue: -1.053708
    3S    l: 0   occupation:  1.0   eigenvalue: -0.100838
  Transforming atomic orbitals to a uniform radial grid of dG=0.02 with 528 points.
  Core radius for overlap checks: 2.01 bohrs.
  Reading pulay file /net/software/testing/software/jdftx/1.7.0-foss-2021b-mkl/share/jdftx/pseudopotentials/SG15/Na_ONCV_PBE.pulay ... using dE_dnG = -3.261361e-04 computed for Ecut = 30.

Initialized 1 species with 9 total atoms.

Folded 1 k-points by 11x11x1 to 121 k-points.

---------- Setting up k-points, bands, fillings ----------
Reduced to 21 k-points under symmetry. 
Computing the number of bands and number of electrons
Calculating initial fillings.
nElectrons:  81.000000   nBands: 45   nStates: 21

----- Setting up reduced wavefunction bases (one per k-point) -----
average nbasis = 38118.901 , ideal nbasis = 38116.600

----- Initializing Supercell corresponding to k-point mesh -----
Lattice vector linear combinations in supercell:
[  11   0   0  ]
[   0  11   0  ]
[   0   0   1  ]
Supercell lattice vectors:
[  87.3039  0  0  ]
[  0  87.3039  0  ]
[  0  0  77.1004  ]

---------- Setting up coulomb interaction ----------
Setting up double-sized grid for truncated Coulomb potentials:
R = 
[      7.93671            0            0  ]
[            0      7.93671            0  ]
[            0            0      154.201  ]
unit cell volume = 9713.33
G =
[   0.791661          0          0  ]
[         -0   0.791661          0  ]
[          0         -0  0.0407468  ]
Chosen fftbox size, S = [  40  40  768  ]
Integer grid location selected as the embedding center:
   Grid: [  0  0  192  ]
   Lattice: [  0  0  0.5  ]
   Cartesian: [  0  0  38.5502  ]
Constructing Wigner-Seitz cell: 6 faces (6 quadrilaterals, 0 hexagons)
Range-separation parameter for embedded mesh potentials due to point charges: 0.565292 bohrs.
Initialized slab truncation along lattice direction 001

---------- Setting up 2D ewald sum ----------
Optimum gaussian width for ewald sums = 4.734710 bohr.
Real space sums over 225 unit cells with max indices [  7  7  0  ]
Reciprocal space sums over 81 terms with max indices [  4  4  0  ]

---------- Allocating electronic variables ----------
Initializing wave functions:  reading from 'X.wfns'


---- Citations for features of the code used in this run ----

   Software package:
      R. Sundararaman, K. Letchworth-Weaver, K.A. Schwarz, D. Gunceler, Y. Ozhabes and T.A. Arias, 'JDFTx: software for joint density-functional theory', SoftwareX 6, 278 (2017)

   gga-PBE exchange-correlation functional:
      J.P. Perdew, K. Burke and M. Ernzerhof, Phys. Rev. Lett. 77, 3865 (1996)

   Pseudopotentials:
      M Schlipf and F Gygi, Comput. Phys. Commun. 196, 36 (2015)

   Truncated Coulomb potentials:
      R. Sundararaman and T.A. Arias, Phys. Rev. B 87, 165122 (2013)

   Total energy minimization with Auxiliary Hamiltonian:
      C. Freysoldt, S. Boeck, and J. Neugebauer, Phys. Rev. B 79, 241103(R) (2009)

   Linear-tetrahedron sampling for density of states:
      G. Lehmann and M. Taut, Phys. status solidi (b) 54, 469 (1972)

This list may not be complete. Please suggest additional citations or
report any other bugs at https://github.com/shankar1729/jdftx/issues

Initialization completed successfully at t[s]:      0.86


Setting the auxilliary hamiltonian equal to the subspace hamiltonian.

-------- Electronic minimization -----------
	FillingsUpdate:  mu: -0.080966003  nElectrons: 81.000000
ElecMinimize: Iter:   0  F: -383.360546742123347  |grad|_K:  5.451e-05  alpha:  1.000e+00
	FillingsUpdate:  mu: -0.137184235  nElectrons: 81.000000
	SubspaceRotationAdjust: set factor to 0.822
ElecMinimize: Iter:   1  F: -383.376583722217788  |grad|_K:  3.145e-05  alpha:  1.189e-01  linmin: -1.620e-03  t[s]:     11.19
	FillingsUpdate:  mu: -0.092677164  nElectrons: 81.000000
	SubspaceRotationAdjust: set factor to 0.47
ElecMinimize: Iter:   2  F: -383.382777207822983  |grad|_K:  1.537e-05  alpha:  1.398e-01  linmin:  1.153e-04  t[s]:     15.79
	FillingsUpdate:  mu: -0.141786128  nElectrons: 81.000000
	SubspaceRotationAdjust: set factor to 0.317
ElecMinimize: Iter:   3  F: -383.385489018924829  |grad|_K:  2.547e-05  alpha:  4.151e-01  linmin:  3.208e-04  t[s]:     20.47
	FillingsUpdate:  mu: -0.143291409  nElectrons: 81.000000
	SubspaceRotationAdjust: set factor to 0.225
ElecMinimize: Iter:   4  F: -383.386789108780363  |grad|_K:  2.306e-05  alpha:  5.617e-02  linmin: -2.761e-04  t[s]:     25.16
	FillingsUpdate:  mu: -0.106544274  nElectrons: 81.000000
	SubspaceRotationAdjust: set factor to 0.365
ElecMinimize: Iter:   5  F: -383.390091303878705  |grad|_K:  5.791e-06  alpha:  1.485e-01  linmin:  8.281e-04  t[s]:     29.82
	FillingsUpdate:  mu: -0.101227768  nElectrons: 81.000000
	SubspaceRotationAdjust: set factor to 0.321
ElecMinimize: Iter:   6  F: -383.390184597602229  |grad|_K:  4.046e-06  alpha:  1.228e-01  linmin:  3.494e-06  t[s]:     34.52
	FillingsUpdate:  mu: -0.097532628  nElectrons: 81.000000

Dumping 'X.fillings' ... done
Dumping 'X.wfns' ... done
Dumping 'X.force' ... done
Dumping 'X.eigenvals' ... done
	SubspaceRotationAdjust: set factor to 0.195
ElecMinimize: Iter:   7  F: -383.390268723230236  |grad|_K:  3.165e-06  alpha:  1.427e-01  linmin:  7.122e-06  t[s]:     39.64
	FillingsUpdate:  mu: -0.097944770  nElectrons: 81.000000
	SubspaceRotationAdjust: set factor to 0.31
ElecMinimize: Iter:   8  F: -383.390347035288301  |grad|_K:  3.096e-06  alpha:  2.167e-01  linmin: -5.153e-06  t[s]:     44.40
	FillingsUpdate:  mu: -0.099832989  nElectrons: 81.000000
	SubspaceRotationAdjust: set factor to 0.356
ElecMinimize: Iter:   9  F: -383.390458979167988  |grad|_K:  3.590e-06  alpha:  3.223e-01  linmin: -1.475e-05  t[s]:     49.17
	FillingsUpdate:  mu: -0.098607358  nElectrons: 81.000000
	SubspaceRotationAdjust: set factor to 0.464
ElecMinimize: Iter:  10  F: -383.390576120994012  |grad|_K:  3.503e-06  alpha:  2.512e-01  linmin: -4.276e-06  t[s]:     53.91
	FillingsUpdate:  mu: -0.097058223  nElectrons: 81.000000
	SubspaceRotationAdjust: set factor to 0.521
ElecMinimize: Iter:  11  F: -383.390686091198233  |grad|_K:  3.635e-06  alpha:  2.480e-01  linmin: -8.977e-06  t[s]:     58.65
	FillingsUpdate:  mu: -0.101448604  nElectrons: 81.000000
	SubspaceRotationAdjust: set factor to 0.729
ElecMinimize: Iter:  12  F: -383.390776170273227  |grad|_K:  2.688e-06  alpha:  1.881e-01  linmin: -9.400e-07  t[s]:     63.38
	FillingsUpdate:  mu: -0.104657255  nElectrons: 81.000000
	SubspaceRotationAdjust: set factor to 0.856
ElecMinimize: Iter:  13  F: -383.390821916878792  |grad|_K:  2.226e-06  alpha:  1.756e-01  linmin: -2.562e-06  t[s]:     68.12
	FillingsUpdate:  mu: -0.103156020  nElectrons: 81.000000
	SubspaceRotationAdjust: set factor to 0.919
ElecMinimize: Iter:  14  F: -383.390845028373633  |grad|_K:  1.674e-06  alpha:  1.294e-01  linmin: -3.074e-06  t[s]:     72.91
	FillingsUpdate:  mu: -0.103256656  nElectrons: 81.000000

Dumping 'X.fillings' ... done
Dumping 'X.wfns' ... done
Dumping 'X.force' ... done
Dumping 'X.eigenvals' ... done
	SubspaceRotationAdjust: set factor to 0.961
ElecMinimize: Iter:  15  F: -383.390862306356212  |grad|_K:  1.299e-06  alpha:  1.709e-01  linmin: -4.114e-06  t[s]:     78.06
	FillingsUpdate:  mu: -0.103136118  nElectrons: 81.000000
	SubspaceRotationAdjust: set factor to 0.941
ElecMinimize: Iter:  16  F: -383.390872598022099  |grad|_K:  1.187e-06  alpha:  1.690e-01  linmin: -4.540e-07  t[s]:     82.79
	FillingsUpdate:  mu: -0.101126118  nElectrons: 81.000000
	SubspaceRotationAdjust: set factor to 0.963
ElecMinimize: Iter:  17  F: -383.390878564658635  |grad|_K:  9.689e-07  alpha:  1.175e-01  linmin: -2.523e-07  t[s]:     87.51
	FillingsUpdate:  mu: -0.100847005  nElectrons: 81.000000
	SubspaceRotationAdjust: set factor to 1.23
ElecMinimize: Iter:  18  F: -383.390883899898540  |grad|_K:  7.565e-07  alpha:  1.577e-01  linmin:  8.136e-07  t[s]:     92.31
	FillingsUpdate:  mu: -0.101011757  nElectrons: 81.000000
	SubspaceRotationAdjust: set factor to 1.13
ElecMinimize: Iter:  19  F: -383.390887720481828  |grad|_K:  7.308e-07  alpha:  1.854e-01  linmin:  1.212e-06  t[s]:     97.04
	FillingsUpdate:  mu: -0.100469983  nElectrons: 81.000000
	SubspaceRotationAdjust: set factor to 1.15
ElecMinimize: Iter:  20  F: -383.390889693857105  |grad|_K:  6.583e-07  alpha:  1.024e-01  linmin: -1.102e-06  t[s]:    101.80
	FillingsUpdate:  mu: -0.101241209  nElectrons: 81.000000
	SubspaceRotationAdjust: set factor to 1.29
ElecMinimize: Iter:  21  F: -383.390891453138352  |grad|_K:  4.553e-07  alpha:  1.126e-01  linmin:  1.987e-06  t[s]:    106.52
	FillingsUpdate:  mu: -0.101614115  nElectrons: 81.000000
	SubspaceRotationAdjust: set factor to 1.43
ElecMinimize: Iter:  22  F: -383.390892630881694  |grad|_K:  3.933e-07  alpha:  1.578e-01  linmin:  5.857e-06  t[s]:    111.26
	FillingsUpdate:  mu: -0.101254082  nElectrons: 81.000000

Dumping 'X.fillings' ... done
Dumping 'X.wfns' ... done
Dumping 'X.force' ... done
Dumping 'X.eigenvals' ... done
	SubspaceRotationAdjust: set factor to 1.22
ElecMinimize: Iter:  23  F: -383.390893141831498  |grad|_K:  3.726e-07  alpha:  9.171e-02  linmin: -2.405e-08  t[s]:    116.41
	FillingsUpdate:  mu: -0.101493091  nElectrons: 81.000000
	SubspaceRotationAdjust: set factor to 1.45
ElecMinimize: Iter:  24  F: -383.390893610734224  |grad|_K:  2.547e-07  alpha:  9.373e-02  linmin:  9.317e-07  t[s]:    121.14
	FillingsUpdate:  mu: -0.101475580  nElectrons: 81.000000
	SubspaceRotationAdjust: set factor to 1.69
ElecMinimize: Iter:  25  F: -383.390894012187005  |grad|_K:  2.337e-07  alpha:  1.714e-01  linmin: -3.843e-06  t[s]:    125.87
	FillingsUpdate:  mu: -0.101259451  nElectrons: 81.000000
	SubspaceRotationAdjust: set factor to 1.38
ElecMinimize: Iter:  26  F: -383.390894236552754  |grad|_K:  2.615e-07  alpha:  1.137e-01  linmin: -2.655e-07  t[s]:    130.60
	FillingsUpdate:  mu: -0.101496548  nElectrons: 81.000000
	SubspaceRotationAdjust: set factor to 1.19
ElecMinimize: Iter:  27  F: -383.390894396040949  |grad|_K:  1.756e-07  alpha:  6.469e-02  linmin: -1.762e-07  t[s]:    135.37
	FillingsUpdate:  mu: -0.101504055  nElectrons: 81.000000
	SubspaceRotationAdjust: set factor to 1.43
ElecMinimize: Iter:  28  F: -383.390894559608057  |grad|_K:  1.439e-07  alpha:  1.480e-01  linmin:  1.301e-05  t[s]:    140.17
	FillingsUpdate:  mu: -0.101346433  nElectrons: 81.000000
	SubspaceRotationAdjust: set factor to 1.2
ElecMinimize: Iter:  29  F: -383.390894649820325  |grad|_K:  1.536e-07  alpha:  1.213e-01  linmin: -6.201e-06  t[s]:    144.91
	FillingsUpdate:  mu: -0.101433421  nElectrons: 81.000000
	SubspaceRotationAdjust: set factor to 1.27
ElecMinimize: Iter:  30  F: -383.390894717296760  |grad|_K:  1.102e-07  alpha:  7.942e-02  linmin: -1.245e-05  t[s]:    149.63
ElecMinimize: Converged (|Delta F|<1.000000e-07 for 2 iters).
Setting wave functions to eigenvectors of Hamiltonian

# Ionic positions in lattice coordinates:
ion Na   0.000000000000000   0.000000000000000   0.294120000000000 1
ion Na   0.500000000000000   0.500000000000000   0.345590000000000 1
ion Na   0.000000000000000   0.000000000000000   0.397060000000000 1
ion Na   0.500000000000000   0.500000000000000   0.448530000000000 1
ion Na   0.000000000000000   0.000000000000000   0.500000000000000 1
ion Na   0.500000000000000   0.500000000000000   0.551470000000000 1
ion Na   0.000000000000000   0.000000000000000   0.602940000000000 1
ion Na   0.500000000000000   0.500000000000000   0.654410000000000 1
ion Na   0.000000000000000   0.000000000000000   0.705880000000000 1

# Forces in Lattice coordinates:
force Na  -0.000000000000000   0.000000000000000  -0.024321625617816 1
force Na  -0.000000000000000   0.000000000000000  -0.003458301598286 1
force Na   0.000000000000000  -0.000000000000000  -0.007008177908627 1
force Na   0.000000000000000   0.000000000000000  -0.022218767114268 1
force Na   0.000000000000000  -0.000000000000000   0.000000000000000 1
force Na   0.000000000000000   0.000000000000000   0.022218767114040 1
force Na   0.000000000000000  -0.000000000000000   0.007008177908627 1
force Na  -0.000000000000000   0.000000000000000   0.003458301598740 1
force Na   0.000000000000000  -0.000000000000000   0.024321625615996 1

# Energy components:
   Eewald =    -4037.3878824492776403
       EH =    -3730.5528347525860227
     Eloc =     7362.0858659972918758
      Enl =     -116.3751297411447752
   Epulay =        0.0000013903384357
      Exc =      -56.3489977198643359
       KE =      195.2242138684603106
-------------------------------------
     Etot =     -383.3547634067821264
       TS =        0.0361313105146541
-------------------------------------
        F =     -383.3908947172967601

IonicMinimize: Iter:   0  F: -383.390894717296760  |grad|_K:  1.195e-04  t[s]:    150.26
IonicMinimize: None of the convergence criteria satisfied after 0 iterations.

#--- Lowdin population analysis ---
# oxidation-state Na +0.076 +0.051 +0.048 +0.056 +0.053 +0.056 +0.048 +0.051 +0.076


Dumping 'X.fillings' ... done
Dumping 'X.wfns' ... done
Dumping 'X.ionpos' ... done
Dumping 'X.lattice' ... done
Dumping 'X.n' ... done
Dumping 'X.eigenvals' ... done
Dumping 'X.eigStats' ... 
	eMin: -2.062477 at state 0 ( [ +0.000000 +0.000000 +0.000000 ] spin 0 )
	HOMO: -0.101501 at state 17 ( [ +0.272727 +0.454545 +0.000000 ] spin 0 )
	mu  : -0.101433
	LUMO: -0.100042 at state 5 ( [ +0.000000 +0.454545 +0.000000 ] spin 0 )
	eMax: +0.007123 at state 11 ( [ +0.181818 +0.181818 +0.000000 ] spin 0 )
	HOMO-LUMO gap: +0.001459
	Optical gap  : +0.006835 at state 10 ( [ +0.090909 +0.454545 +0.000000 ] spin 0 )
Dumping 'X.dos' ... done.
End date and time: Thu Nov  9 00:14:20 2023  (Duration: 0-0:02:31.01)
Done!

*************** JDFTx 1.7.0  ***************

Start date and time: Thu Nov  9 00:14:23 2023
Executable jdftx with command-line: -m -i X.in -o X.out
Running on hosts (process indices):  ac0170 (0-20)
Divided in process groups (process indices):  0 (0)  1 (1)  2 (2)  3 (3)  4 (4)  5 (5)  6 (6)  7 (7)  8 (8)  9 (9)  10 (10)  11 (11)  12 (12)  13 (13)  14 (14)  15 (15)  16 (16)  17 (17)  18 (18)  19 (19)  20 (20)
Resource initialization completed at t[s]:      0.01
Run totals: 21 processes, 21 threads, 0 GPUs


Input parsed successfully to the following command list (including defaults):

basis kpoint-dependent
cache-projectors no
coords-type Lattice
core-overlap-check vector
coulomb-interaction Slab 001
coulomb-truncation-embed 0 0 0.5
davidson-band-ratio 1.1
density-of-states Etol 1.000000e-06 Esigma 0.000000e+00 \
		Complete \
	Total \
		Occupied \
	Total
dump End State IonicPositions Lattice ElecDensity CoreDensity EigStats DOS
dump Electronic State Forces
dump Ionic State IonicPositions Forces Lattice DOS
dump-interval Electronic 8
dump-interval Ionic 4
dump-name X.$var
elec-cutoff 40
elec-eigen-algo Davidson
elec-ex-corr gga-PBE
elec-smearing Fermi 0.0095
electronic-minimize  \
	dirUpdateScheme      FletcherReeves \
	linminMethod         DirUpdateRecommended \
	nIterations          2000 \
	history              15 \
	knormThreshold       0 \
	energyDiffThreshold  1e-07 \
	nEnergyDiff          2 \
	alphaTstart          1 \
	alphaTmin            1e-10 \
	updateTestStepSize   yes \
	alphaTreduceFactor   0.1 \
	alphaTincreaseFactor 3 \
	nAlphaAdjustMax      3 \
	wolfeEnergy          0.0001 \
	wolfeGradient        0.9 \
	fdTest               no
exchange-regularization WignerSeitzTruncated
fluid None
fluid-ex-corr (null) lda-PZ
fluid-gummel-loop 10 1.000000e-05
fluid-minimize  \
	dirUpdateScheme      PolakRibiere \
	linminMethod         DirUpdateRecommended \
	nIterations          100 \
	history              15 \
	knormThreshold       0 \
	energyDiffThreshold  0 \
	nEnergyDiff          2 \
	alphaTstart          1 \
	alphaTmin            1e-10 \
	updateTestStepSize   yes \
	alphaTreduceFactor   0.1 \
	alphaTincreaseFactor 3 \
	nAlphaAdjustMax      3 \
	wolfeEnergy          0.0001 \
	wolfeGradient        0.9 \
	fdTest               no
fluid-solvent H2O 55.338 ScalarEOS \
	epsBulk 78.4 \
	pMol 0.92466 \
	epsInf 1.77 \
	Pvap 1.06736e-10 \
	sigmaBulk 4.62e-05 \
	Rvdw 2.61727 \
	Res 1.42 \
	tauNuc 343133 \
	poleEl 15 7 1
forces-output-coords Positions
ion Na   0.000000000000000   0.000000000000000   0.294120000000000 1
ion Na   0.500000000000000   0.500000000000000   0.345590000000000 1
ion Na   0.000000000000000   0.000000000000000   0.397060000000000 1
ion Na   0.500000000000000   0.500000000000000   0.448530000000000 1
ion Na   0.000000000000000   0.000000000000000   0.500000000000000 1
ion Na   0.500000000000000   0.500000000000000   0.551470000000000 1
[...]
	FillingsUpdate:  mu: -0.099951707  nElectrons: 81.000000
	SubspaceRotationAdjust: set factor to 0.241
ElecMinimize: Iter:  10  F: -383.380471867524534  |grad|_K:  3.183e-07  alpha:  1.956e-01  linmin: -8.757e-07  t[s]:    583.26
	FillingsUpdate:  mu: -0.099232103  nElectrons: 81.000000
	SubspaceRotationAdjust: set factor to 0.202
ElecMinimize: Iter:  11  F: -383.380474040110926  |grad|_K:  1.716e-07  alpha:  2.765e-01  linmin: -9.551e-07  t[s]:    593.54
	FillingsUpdate:  mu: -0.099172576  nElectrons: 81.000000
	SubspaceRotationAdjust: set factor to 0.232
ElecMinimize: Iter:  12  F: -383.380474947179778  |grad|_K:  1.237e-07  alpha:  3.974e-01  linmin:  1.002e-06  t[s]:    603.83
	FillingsUpdate:  mu: -0.099436104  nElectrons: 81.000000
	SubspaceRotationAdjust: set factor to 0.245
ElecMinimize: Iter:  13  F: -383.380475475983815  |grad|_K:  1.003e-07  alpha:  4.457e-01  linmin:  5.389e-06  t[s]:    614.16
	FillingsUpdate:  mu: -0.099354428  nElectrons: 81.000000
	SubspaceRotationAdjust: set factor to 0.275
ElecMinimize: Iter:  14  F: -383.380475815345108  |grad|_K:  7.569e-08  alpha:  4.358e-01  linmin:  4.047e-06  t[s]:    624.45
	FillingsUpdate:  mu: -0.099442492  nElectrons: 81.000000

Dumping 'X.fillings' ... done
Dumping 'X.wfns' ... done
Dumping 'X.ionpos' ... done
Dumping 'X.force' ... done
Dumping 'X.eigenvals' ... done
	SubspaceRotationAdjust: set factor to 0.335
ElecMinimize: Iter:  15  F: -383.380476000160797  |grad|_K:  5.736e-08  alpha:  4.161e-01  linmin: -2.084e-07  t[s]:    635.41
	FillingsUpdate:  mu: -0.099519680  nElectrons: 81.000000
	SubspaceRotationAdjust: set factor to 0.388
ElecMinimize: Iter:  16  F: -383.380476123045526  |grad|_K:  5.230e-08  alpha:  4.818e-01  linmin: -7.434e-06  t[s]:    645.74
	FillingsUpdate:  mu: -0.099403426  nElectrons: 81.000000
	SubspaceRotationAdjust: set factor to 0.377
ElecMinimize: Iter:  17  F: -383.380476216538113  |grad|_K:  5.261e-08  alpha:  4.389e-01  linmin:  5.847e-06  t[s]:    656.05
	FillingsUpdate:  mu: -0.099525823  nElectrons: 81.000000
	SubspaceRotationAdjust: set factor to 0.287
ElecMinimize: Iter:  18  F: -383.380476281918845  |grad|_K:  4.531e-08  alpha:  3.060e-01  linmin: -3.630e-06  t[s]:    666.32
	FillingsUpdate:  mu: -0.099415763  nElectrons: 81.000000
	SubspaceRotationAdjust: set factor to 0.239
ElecMinimize: Iter:  19  F: -383.380476334041305  |grad|_K:  3.174e-08  alpha:  3.275e-01  linmin:  1.477e-06  t[s]:    676.66
	FillingsUpdate:  mu: -0.099413126  nElectrons: 81.000000
	SubspaceRotationAdjust: set factor to 0.26
ElecMinimize: Iter:  20  F: -383.380476365351797  |grad|_K:  2.275e-08  alpha:  4.011e-01  linmin: -1.289e-05  t[s]:    686.93
	FillingsUpdate:  mu: -0.099445539  nElectrons: 81.000000
	SubspaceRotationAdjust: set factor to 0.273
ElecMinimize: Iter:  21  F: -383.380476381280687  |grad|_K:  1.779e-08  alpha:  3.952e-01  linmin:  3.746e-05  t[s]:    697.23
	FillingsUpdate:  mu: -0.099418040  nElectrons: 81.000000
	SubspaceRotationAdjust: set factor to 0.284
ElecMinimize: Iter:  22  F: -383.380476391299794  |grad|_K:  1.478e-08  alpha:  4.100e-01  linmin: -7.395e-05  t[s]:    707.59
	FillingsUpdate:  mu: -0.099441257  nElectrons: 81.000000

Dumping 'X.fillings' ... done
Dumping 'X.wfns' ... done
Dumping 'X.ionpos' ... done
Dumping 'X.force' ... done
Dumping 'X.eigenvals' ... done
	SubspaceRotationAdjust: set factor to 0.325
ElecMinimize: Iter:  23  F: -383.380476398777716  |grad|_K:  1.291e-08  alpha:  4.423e-01  linmin: -3.884e-05  t[s]:    718.69
	FillingsUpdate:  mu: -0.099445099  nElectrons: 81.000000
	SubspaceRotationAdjust: set factor to 0.386
ElecMinimize: Iter:  24  F: -383.380476404967567  |grad|_K:  1.168e-08  alpha:  4.963e-01  linmin:  1.480e-04  t[s]:    728.98
ElecMinimize: Converged (|Delta F|<1.000000e-08 for 2 iters).
Setting wave functions to eigenvectors of Hamiltonian
Converging empty states (this may take a while): |deigs|: 9.209e-08

# Ionic positions in lattice coordinates:
ion Na   0.000000000000000   0.000000000000000   0.293671728279409 1
ion Na   0.500000000000000   0.500000000000000   0.345788449636748 1
ion Na   0.000000000000000   0.000000000000000   0.397106222634036 1
ion Na   0.500000000000000   0.500000000000000   0.448009629117343 1
ion Na   0.000000000000000   0.000000000000000   0.500000000000000 1
ion Na   0.500000000000000   0.500000000000000   0.551990370882657 1
ion Na   0.000000000000000   0.000000000000000   0.602893777365964 1
ion Na   0.500000000000000   0.500000000000000   0.654211550363252 1
ion Na   0.000000000000000   0.000000000000000   0.706328271720591 1

# Forces in Lattice coordinates:
force Na  -0.000000000000000   0.000000000000000   0.003814543201631 1
force Na  -0.000000000000000  -0.000000000000000  -0.005109150194756 1
force Na   0.000000000000000   0.000000000000000  -0.008287795066463 1
force Na   0.000000000000000  -0.000000000000000  -0.004504677914412 1
force Na   0.000000000000000   0.000000000000000   0.000000000000000 1
force Na   0.000000000000000  -0.000000000000000   0.004504677914867 1
force Na   0.000000000000000   0.000000000000000   0.008287795066463 1
force Na  -0.000000000000000  -0.000000000000000   0.005109150193846 1
force Na   0.000000000000000  -0.000000000000000  -0.003814543200720 1

# Energy components:
   Eewald =    -4041.3749906324760559
       EH =    -3734.3367378192228898
     Eloc =     7369.8531188109855066
      Enl =     -116.3781934439501100
   Epulay =       -0.0000000170660292
      Exc =      -56.3489256415396795
       KE =      195.2057083009419785
-------------------------------------
     Etot =     -383.3800204423272362
       TS =        0.0004559626403179
-------------------------------------
        F =     -383.3804764049675669

IonicMinimize: Iter:   2  F: -383.380476404967567  |grad|_K:  4.019e-05  alpha:  1.000e+00  linmin: -6.258e-01  t[s]:    740.50

#--- Lowdin population analysis ---
# oxidation-state Na +0.053 +0.050 +0.035 +0.038 +0.048 +0.038 +0.035 +0.050 +0.053


-------- Electronic minimization -----------
	FillingsUpdate:  mu: -0.083430871  nElectrons: 81.000000
ElecMinimize: Iter:   0  F: -383.259541312107444  |grad|_K:  8.526e-05  alpha:  1.000e+00
	FillingsUpdate:  mu: -0.161800433  nElectrons: 81.000000
	SubspaceRotationAdjust: set factor to 0.237
ElecMinimize: Iter:   1  F: -383.371318982550292  |grad|_K:  2.542e-05  alpha:  2.019e-01  linmin:  9.050e-03  t[s]:    757.98
	FillingsUpdate:  mu: -0.087975760  nElectrons: 81.000000
	SubspaceRotationAdjust: set factor to 0.119
ElecMinimize: Iter:   2  F: -383.378180646336887  |grad|_K:  8.498e-06  alpha:  1.366e-01  linmin:  8.646e-05  t[s]:    767.76
	FillingsUpdate:  mu: -0.086547314  nElectrons: 81.000000
	SubspaceRotationAdjust: set factor to 0.189
ElecMinimize: Iter:   3  F: -383.379958493497270  |grad|_K:  3.706e-06  alpha:  3.181e-01  linmin: -6.803e-06  t[s]:    777.90
	FillingsUpdate:  mu: -0.096229634  nElectrons: 81.000000
	SubspaceRotationAdjust: set factor to 0.2
ElecMinimize: Iter:   4  F: -383.380319285529822  |grad|_K:  1.703e-06  alpha:  3.388e-01  linmin: -3.441e-05  t[s]:    788.05
	FillingsUpdate:  mu: -0.098335097  nElectrons: 81.000000
	SubspaceRotationAdjust: set factor to 0.289
ElecMinimize: Iter:   5  F: -383.380414061992042  |grad|_K:  9.824e-07  alpha:  4.214e-01  linmin:  1.868e-05  t[s]:    798.22
	FillingsUpdate:  mu: -0.097907331  nElectrons: 81.000000
	SubspaceRotationAdjust: set factor to 0.327
ElecMinimize: Iter:   6  F: -383.380444271728948  |grad|_K:  6.708e-07  alpha:  4.040e-01  linmin:  1.599e-05  t[s]:    808.31
	FillingsUpdate:  mu: -0.100195817  nElectrons: 81.000000

Dumping 'X.fillings' ... done
Dumping 'X.wfns' ... done
Dumping 'X.ionpos' ... done
Dumping 'X.force' ... done
Dumping 'X.eigenvals' ... done
	SubspaceRotationAdjust: set factor to 0.34
ElecMinimize: Iter:   7  F: -383.380457317519415  |grad|_K:  5.317e-07  alpha:  3.744e-01  linmin:  2.982e-07  t[s]:    819.21
	FillingsUpdate:  mu: -0.099251577  nElectrons: 81.000000
	SubspaceRotationAdjust: set factor to 0.354
ElecMinimize: Iter:   8  F: -383.380465926396653  |grad|_K:  4.779e-07  alpha:  3.928e-01  linmin:  7.399e-08  t[s]:    829.34
	FillingsUpdate:  mu: -0.100496418  nElectrons: 81.000000
	SubspaceRotationAdjust: set factor to 0.343
ElecMinimize: Iter:   9  F: -383.380473873356323  |grad|_K:  4.053e-07  alpha:  4.489e-01  linmin:  8.138e-07  t[s]:    839.42
	FillingsUpdate:  mu: -0.099384553  nElectrons: 81.000000
	SubspaceRotationAdjust: set factor to 0.274
ElecMinimize: Iter:  10  F: -383.380478545742676  |grad|_K:  2.799e-07  alpha:  3.671e-01  linmin: -6.765e-07  t[s]:    849.52
	FillingsUpdate:  mu: -0.099838475  nElectrons: 81.000000
	SubspaceRotationAdjust: set factor to 0.192
ElecMinimize: Iter:  11  F: -383.380480242948238  |grad|_K:  1.628e-07  alpha:  2.793e-01  linmin: -1.158e-07  t[s]:    859.64
	FillingsUpdate:  mu: -0.099488650  nElectrons: 81.000000
	SubspaceRotationAdjust: set factor to 0.196
ElecMinimize: Iter:  12  F: -383.380480912323719  |grad|_K:  9.587e-08  alpha:  3.259e-01  linmin: -1.475e-06  t[s]:    869.53
	FillingsUpdate:  mu: -0.099457398  nElectrons: 81.000000
	SubspaceRotationAdjust: set factor to 0.232
ElecMinimize: Iter:  13  F: -383.380481227081418  |grad|_K:  7.261e-08  alpha:  4.416e-01  linmin: -1.165e-05  t[s]:    879.79
	FillingsUpdate:  mu: -0.099565045  nElectrons: 81.000000
	SubspaceRotationAdjust: set factor to 0.239
ElecMinimize: Iter:  14  F: -383.380481424604966  |grad|_K:  6.239e-08  alpha:  4.831e-01  linmin:  2.006e-05  t[s]:    890.09
	FillingsUpdate:  mu: -0.099427983  nElectrons: 81.000000

Dumping 'X.fillings' ... done
Dumping 'X.wfns' ... done
Dumping 'X.ionpos' ... done
Dumping 'X.force' ... done
Dumping 'X.eigenvals' ... done
	SubspaceRotationAdjust: set factor to 0.231
ElecMinimize: Iter:  15  F: -383.380481555099095  |grad|_K:  5.039e-08  alpha:  4.327e-01  linmin: -3.734e-06  t[s]:    901.16
	FillingsUpdate:  mu: -0.099471798  nElectrons: 81.000000
	SubspaceRotationAdjust: set factor to 0.246
ElecMinimize: Iter:  16  F: -383.380481649386240  |grad|_K:  4.110e-08  alpha:  4.787e-01  linmin: -3.211e-05  t[s]:    911.53
	FillingsUpdate:  mu: -0.099488356  nElectrons: 81.000000
	SubspaceRotationAdjust: set factor to 0.265
ElecMinimize: Iter:  17  F: -383.380481723018931  |grad|_K:  3.959e-08  alpha:  5.616e-01  linmin:  2.358e-05  t[s]:    921.86
	FillingsUpdate:  mu: -0.099377505  nElectrons: 81.000000
	SubspaceRotationAdjust: set factor to 0.253
ElecMinimize: Iter:  18  F: -383.380481784993606  |grad|_K:  3.898e-08  alpha:  5.114e-01  linmin:  2.407e-06  t[s]:    932.13
	FillingsUpdate:  mu: -0.099450714  nElectrons: 81.000000
	SubspaceRotationAdjust: set factor to 0.226
ElecMinimize: Iter:  19  F: -383.380481837136358  |grad|_K:  3.176e-08  alpha:  4.424e-01  linmin: -1.589e-05  t[s]:    942.52
	FillingsUpdate:  mu: -0.099412712  nElectrons: 81.000000
	SubspaceRotationAdjust: set factor to 0.234
ElecMinimize: Iter:  20  F: -383.380481871196082  |grad|_K:  2.157e-08  alpha:  4.342e-01  linmin: -8.822e-06  t[s]:    952.81
	FillingsUpdate:  mu: -0.099405307  nElectrons: 81.000000
	SubspaceRotationAdjust: set factor to 0.249
ElecMinimize: Iter:  21  F: -383.380481885962581  |grad|_K:  1.443e-08  alpha:  4.087e-01  linmin:  2.679e-05  t[s]:    963.11
	FillingsUpdate:  mu: -0.099443939  nElectrons: 81.000000
	SubspaceRotationAdjust: set factor to 0.218
ElecMinimize: Iter:  22  F: -383.380481892202226  |grad|_K:  1.066e-08  alpha:  3.945e-01  linmin:  1.526e-04  t[s]:    973.44
	FillingsUpdate:  mu: -0.099430222  nElectrons: 81.000000

Dumping 'X.fillings' ... done
Dumping 'X.wfns' ... done
Dumping 'X.ionpos' ... done
Dumping 'X.force' ... done
Dumping 'X.eigenvals' ... done
	SubspaceRotationAdjust: set factor to 0.198
ElecMinimize: Iter:  23  F: -383.380481895696903  |grad|_K:  8.283e-09  alpha:  4.138e-01  linmin: -3.233e-04  t[s]:    984.50
ElecMinimize: Converged (|Delta F|<1.000000e-08 for 2 iters).
Setting wave functions to eigenvectors of Hamiltonian
Converging empty states (this may take a while): |deigs|: 4.940e-08

# Ionic positions in lattice coordinates:
ion Na   0.000000000000000   0.000000000000000   0.293843478055916 1
ion Na   0.500000000000000   0.500000000000000   0.345679225662490 1
ion Na   0.000000000000000   0.000000000000000   0.396801733701651 1
ion Na   0.500000000000000   0.500000000000000   0.447773204296692 1
ion Na   0.000000000000000   0.000000000000000   0.500000000000000 1
ion Na   0.500000000000000   0.500000000000000   0.552226795703308 1
ion Na   0.000000000000000   0.000000000000000   0.603198266298349 1
ion Na   0.500000000000000   0.500000000000000   0.654320774337510 1
ion Na   0.000000000000000   0.000000000000000   0.706156521944084 1

# Forces in Lattice coordinates:
force Na  -0.000000000000000  -0.000000000000000  -0.003087370955856 1
force Na   0.000000000000000  -0.000000000000000  -0.002631351518155 1
force Na  -0.000000000000000  -0.000000000000000  -0.001147597015680 1
force Na   0.000000000000000  -0.000000000000000   0.000327490579419 1
force Na   0.000000000000000  -0.000000000000000   0.000000000000000 1
force Na   0.000000000000000  -0.000000000000000  -0.000327490579192 1
force Na  -0.000000000000000   0.000000000000000   0.001147597016134 1
force Na   0.000000000000000  -0.000000000000000   0.002631351516791 1
force Na  -0.000000000000000   0.000000000000000   0.003087370957675 1

# Energy components:
   Eewald =    -4042.6121600646602019
       EH =    -3735.5715472246238278
     Eloc =     7372.3246982977316293
      Enl =     -116.3782602827055399
   Epulay =       -0.0000000170660292
      Exc =      -56.3493439623297618
       KE =      195.2065840125634111
-------------------------------------
     Etot =     -383.3800292410902557
       TS =        0.0004526546066479
-------------------------------------
        F =     -383.3804818956969029


Dumping 'X.fillings' ... done
Dumping 'X.wfns' ... done
Dumping 'X.ionpos' ... done
Dumping 'X.force' ... done
Dumping 'X.lattice' ... done
Dumping 'X.eigenvals' ... done
Dumping 'X.dos' ... done.
IonicMinimize: Iter:   3  F: -383.380481895696903  |grad|_K:  1.493e-05  alpha:  1.000e+00  linmin: -1.582e-02  t[s]:    997.17

#--- Lowdin population analysis ---
# oxidation-state Na +0.053 +0.049 +0.035 +0.038 +0.049 +0.038 +0.035 +0.049 +0.053


-------- Electronic minimization -----------
	FillingsUpdate:  mu: -0.099024460  nElectrons: 81.000000
ElecMinimize: Iter:   0  F: -383.380473921183295  |grad|_K:  6.083e-07  alpha:  1.000e+00
	FillingsUpdate:  mu: -0.099455182  nElectrons: 81.000000
	SubspaceRotationAdjust: set factor to 0.183
ElecMinimize: Iter:   1  F: -383.380482164871864  |grad|_K:  1.292e-07  alpha:  2.873e-01  linmin: -1.118e-04  t[s]:   1015.28
	FillingsUpdate:  mu: -0.099299682  nElectrons: 81.000000
	SubspaceRotationAdjust: set factor to 0.169
ElecMinimize: Iter:   2  F: -383.380482655839046  |grad|_K:  6.373e-08  alpha:  3.793e-01  linmin:  6.927e-05  t[s]:   1025.58
	FillingsUpdate:  mu: -0.099484939  nElectrons: 81.000000
	SubspaceRotationAdjust: set factor to 0.15
ElecMinimize: Iter:   3  F: -383.380482801149356  |grad|_K:  4.209e-08  alpha:  4.620e-01  linmin:  1.130e-05  t[s]:   1035.91
	FillingsUpdate:  mu: -0.099435134  nElectrons: 81.000000
	SubspaceRotationAdjust: set factor to 0.148
ElecMinimize: Iter:   4  F: -383.380482879965598  |grad|_K:  3.529e-08  alpha:  5.746e-01  linmin:  8.590e-05  t[s]:   1046.24
	FillingsUpdate:  mu: -0.099461995  nElectrons: 81.000000
	SubspaceRotationAdjust: set factor to 0.158
ElecMinimize: Iter:   5  F: -383.380482937029342  |grad|_K:  2.896e-08  alpha:  5.913e-01  linmin:  9.876e-06  t[s]:   1056.51
	FillingsUpdate:  mu: -0.099482874  nElectrons: 81.000000
	SubspaceRotationAdjust: set factor to 0.168
ElecMinimize: Iter:   6  F: -383.380482977605084  |grad|_K:  2.355e-08  alpha:  6.250e-01  linmin: -4.235e-06  t[s]:   1066.88
	FillingsUpdate:  mu: -0.099451680  nElectrons: 81.000000

Dumping 'X.fillings' ... done
Dumping 'X.wfns' ... done
Dumping 'X.ionpos' ... done
Dumping 'X.force' ... done
Dumping 'X.eigenvals' ... done
	SubspaceRotationAdjust: set factor to 0.176
ElecMinimize: Iter:   7  F: -383.380483000069603  |grad|_K:  1.875e-08  alpha:  5.218e-01  linmin: -2.652e-05  t[s]:   1077.94
	FillingsUpdate:  mu: -0.099441328  nElectrons: 81.000000
	SubspaceRotationAdjust: set factor to 0.182
ElecMinimize: Iter:   8  F: -383.380483011361321  |grad|_K:  1.327e-08  alpha:  4.132e-01  linmin:  2.493e-04  t[s]:   1087.55
	FillingsUpdate:  mu: -0.099437708  nElectrons: 81.000000
	SubspaceRotationAdjust: set factor to 0.186
ElecMinimize: Iter:   9  F: -383.380483017375070  |grad|_K:  9.599e-09  alpha:  4.488e-01  linmin: -5.394e-04  t[s]:   1097.65
	FillingsUpdate:  mu: -0.099430502  nElectrons: 81.000000
	SubspaceRotationAdjust: set factor to 0.19
ElecMinimize: Iter:  10  F: -383.380483021315229  |grad|_K:  8.473e-09  alpha:  5.367e-01  linmin:  9.563e-04  t[s]:   1107.78
ElecMinimize: Converged (|Delta F|<1.000000e-08 for 2 iters).
Setting wave functions to eigenvectors of Hamiltonian
Converging empty states (this may take a while): |deigs|: 3.535e-09

# Ionic positions in lattice coordinates:
ion Na   0.000000000000000  -0.000000000000000   0.293745946502050 1
ion Na   0.500000000000000   0.500000000000000   0.345604345664521 1
ion Na   0.000000000000000  -0.000000000000000   0.396740110765713 1
ion Na   0.500000000000000   0.500000000000000   0.447757316611293 1
ion Na   0.000000000000000  -0.000000000000000   0.500000000000000 1
ion Na   0.500000000000000   0.500000000000000   0.552242683388707 1
ion Na   0.000000000000000  -0.000000000000000   0.603259889234287 1
ion Na   0.500000000000000   0.500000000000000   0.654395654335479 1
ion Na   0.000000000000000  -0.000000000000000   0.706254053497950 1

# Forces in Lattice coordinates:
force Na  -0.000000000000000   0.000000000000000  -0.000973064378556 1
force Na   0.000000000000000   0.000000000000000  -0.001009242121523 1
force Na   0.000000000000000   0.000000000000000  -0.000336300177099 1
force Na   0.000000000000000   0.000000000000000  -0.000611654065346 1
force Na   0.000000000000000  -0.000000000000000   0.000000000000000 1
force Na   0.000000000000000   0.000000000000000   0.000611654065346 1
force Na   0.000000000000000  -0.000000000000000   0.000336300177099 1
force Na   0.000000000000000   0.000000000000000   0.001009242121523 1
force Na  -0.000000000000000   0.000000000000000   0.000973064379465 1

# Energy components:
   Eewald =    -4044.4770866367794042
       EH =    -3737.4373177829415908
     Eloc =     7376.0556219729278382
      Enl =     -116.3781946014024982
   Epulay =       -0.0000000170660292
      Exc =      -56.3490982173645847
       KE =      195.2060439977068427
-------------------------------------
     Etot =     -383.3800312849193688
       TS =        0.0004517363958847
-------------------------------------
        F =     -383.3804830213152286

IonicMinimize: Iter:   4  F: -383.380483021315229  |grad|_K:  5.528e-06  alpha:  1.000e+00  linmin: -9.266e-01  t[s]:   1116.97
IonicMinimize: Converged (|grad|_K<1.000000e-05).

#--- Lowdin population analysis ---
# oxidation-state Na +0.053 +0.049 +0.035 +0.038 +0.049 +0.038 +0.035 +0.049 +0.053


Dumping 'X.fillings' ... done
Dumping 'X.wfns' ... done
Dumping 'X.ionpos' ... done
Dumping 'X.lattice' ... done
Dumping 'X.n' ... done
Dumping 'X.eigenvals' ... done
Dumping 'X.eigStats' ... 
	eMin: -2.060203 at state 0 ( [ +0.000000 +0.000000 +0.000000 ] spin 0 )
	HOMO: -0.099436 at state 9 ( [ +0.090909 +0.363636 +0.000000 ] spin 0 )
	mu  : -0.099431
	LUMO: -0.099031 at state 17 ( [ +0.272727 +0.454545 +0.000000 ] spin 0 )
	eMax: -0.009377 at state 11 ( [ +0.181818 +0.181818 +0.000000 ] spin 0 )
	HOMO-LUMO gap: +0.000405
	Optical gap  : +0.003593 at state 17 ( [ +0.272727 +0.454545 +0.000000 ] spin 0 )
Dumping 'X.dos' ... done.
End date and time: Thu Nov  9 01:04:58 2023  (Duration: 0-0:18:38.58)
Done!
