
*************** JDFTx 1.7.0  ***************

Start date and time: Wed Nov  8 23:49:31 2023
Executable jdftx with command-line: -m -i X.in -o X.out
Running on hosts (process indices):  ac0015 (0-20)
Divided in process groups (process indices):  0 (0)  1 (1)  2 (2)  3 (3)  4 (4)  5 (5)  6 (6)  7 (7)  8 (8)  9 (9)  10 (10)  11 (11)  12 (12)  13 (13)  14 (14)  15 (15)  16 (16)  17 (17)  18 (18)  19 (19)  20 (20)
Resource initialization completed at t[s]:      0.01
Run totals: 21 processes, 21 threads, 0 GPUs


Input parsed successfully to the following command list (including defaults):

basis kpoint-dependent
cache-projectors no
coords-type Lattice
core-overlap-check vector
coulomb-interaction Slab 001
coulomb-truncation-embed 0 0 0.5
davidson-band-ratio 1.1
density-of-states Etol 1.000000e-06 Esigma 0.000000e+00 \
		Complete \
	Total \
		Occupied \
	Total
dump End State IonicPositions Lattice ElecDensity CoreDensity EigStats DOS
dump Electronic State Forces
dump Ionic State IonicPositions Forces Lattice DOS
dump-interval Electronic 8
dump-interval Ionic 4
dump-name X.$var
elec-cutoff 10
elec-eigen-algo Davidson
elec-ex-corr gga-PBE
elec-smearing Fermi 0.0095
electronic-minimize  \
	dirUpdateScheme      FletcherReeves \
	linminMethod         DirUpdateRecommended \
	nIterations          2000 \
	history              15 \
	knormThreshold       0 \
	energyDiffThreshold  1e-06 \
	nEnergyDiff          2 \
	alphaTstart          1 \
	alphaTmin            1e-10 \
	updateTestStepSize   yes \
	alphaTreduceFactor   0.1 \
	alphaTincreaseFactor 3 \
	nAlphaAdjustMax      3 \
	wolfeEnergy          0.0001 \
	wolfeGradient        0.9 \
	fdTest               no
exchange-regularization WignerSeitzTruncated
fluid None
fluid-ex-corr (null) lda-PZ
fluid-gummel-loop 10 1.000000e-05
fluid-minimize  \
	dirUpdateScheme      PolakRibiere \
	linminMethod         DirUpdateRecommended \
	nIterations          100 \
	history              15 \
	knormThreshold       0 \
	energyDiffThreshold  0 \
	nEnergyDiff          2 \
	alphaTstart          1 \
	alphaTmin            1e-10 \
	updateTestStepSize   yes \
	alphaTreduceFactor   0.1 \
	alphaTincreaseFactor 3 \
	nAlphaAdjustMax      3 \
	wolfeEnergy          0.0001 \
	wolfeGradient        0.9 \
	fdTest               no
fluid-solvent H2O 55.338 ScalarEOS \
	epsBulk 78.4 \
	pMol 0.92466 \
	epsInf 1.77 \
	Pvap 1.06736e-10 \
	sigmaBulk 4.62e-05 \
	Rvdw 2.61727 \
	Res 1.42 \
	tauNuc 343133 \
	poleEl 15 7 1
forces-output-coords Positions
initial-state X.$var
ion Na   0.000000000000000   0.000000000000000   0.327870000000000 1
ion Na   0.500000000000000   0.500000000000000   0.385250000000000 1
ion Na   0.000000000000000   0.000000000000000   0.442620000000000 1
ion Na   0.500000000000000   0.500000000000000   0.500000000000000 1
ion Na   0.000000000000000   0.000000000000000   0.557380000000000 1
ion Na   0.500000000000000   0.500000000000000   0.614750000000000 1
ion Na   0.000000000000000   0.000000000000000   0.672130000000000 1
ion-species SG15/$ID_ONCV_PBE.upf
ion-width 0
ionic-minimize  \
	dirUpdateScheme      L-BFGS \
	linminMethod         DirUpdateRecommended \
	nIterations          0 \
	history              15 \
	knormThreshold       0.0001 \
	energyDiffThreshold  1e-06 \
	nEnergyDiff          2 \
	alphaTstart          1 \
	alphaTmin            1e-10 \
	updateTestStepSize   yes \
	alphaTreduceFactor   0.1 \
	alphaTincreaseFactor 3 \
	nAlphaAdjustMax      3 \
	wolfeEnergy          0.0001 \
	wolfeGradient        0.9 \
	fdTest               no
kpoint   0.000000000000   0.000000000000   0.000000000000  1.00000000000000
kpoint-folding 11 11 1 
latt-move-scale 1 1 1
latt-scale 1.88973 1.88973 1.88973 
lattice  \
	   4.199920000000001   -0.000000000000000   -0.000000000000000  \
	   0.000000000000000    4.199920000000001   -0.000000000000000  \
	   0.000000000000000    0.000000000000000   36.599800000000002 
lattice-minimize  \
	dirUpdateScheme      L-BFGS \
	linminMethod         DirUpdateRecommended \
	nIterations          0 \
	history              15 \
	knormThreshold       0 \
	energyDiffThreshold  1e-06 \
	nEnergyDiff          2 \
	alphaTstart          1 \
	alphaTmin            1e-10 \
	updateTestStepSize   yes \
	alphaTreduceFactor   0.1 \
	alphaTincreaseFactor 3 \
	nAlphaAdjustMax      3 \
	wolfeEnergy          0.0001 \
	wolfeGradient        0.9 \
	fdTest               no
lcao-params -1 1e-06 0.0095
pcm-variant GLSSA13
spintype no-spin
subspace-rotation-factor 1 yes
symmetries automatic
symmetry-threshold 0.0001



---------- Setting up symmetries ----------

Found 16 point-group symmetries of the bravais lattice
Found 16 space-group symmetries with basis
Applied RMS atom displacement 0 bohrs to make symmetries exact.

---------- Initializing the Grid ----------
R = 
[      7.93671            0            0  ]
[            0      7.93671            0  ]
[            0            0      69.1637  ]
unit cell volume = 4356.72
G =
[   0.791661          0          0  ]
[         -0   0.791661          0  ]
[          0         -0  0.0908451  ]
Minimum fftbox size, Smin = [  24  24  200  ]
Chosen fftbox size, S = [  24  24  200  ]

---------- Exchange Correlation functional ----------
Initalized PBE GGA exchange.
Initalized PBE GGA correlation.

---------- Setting up pseudopotentials ----------
Width of ionic core gaussian charges (only for fluid interactions / plotting) set to 0

Reading pseudopotential file '/net/software/testing/software/jdftx/1.7.0-foss-2021b-mkl/share/jdftx/pseudopotentials/SG15/Na_ONCV_PBE.upf':
  'Na' pseudopotential, 'PBE' functional
  Generated using ONCVPSP code by D. R. Hamann
  Author: Martin Schlipf and Francois Gygi  Date: 150915.
  9 valence electrons, 3 orbitals, 4 projectors, 1992 radial grid points, with lMax = 1
  Transforming local potential to a uniform radial grid of dG=0.02 with 816 points.
  Transforming nonlocal projectors to a uniform radial grid of dG=0.02 with 307 points.
    2S    l: 0   occupation:  2.0   eigenvalue: -2.085640
    2P    l: 1   occupation:  6.0   eigenvalue: -1.053708
    3S    l: 0   occupation:  1.0   eigenvalue: -0.100838
  Transforming atomic orbitals to a uniform radial grid of dG=0.02 with 307 points.
  Core radius for overlap checks: 2.01 bohrs.
  Reading pulay file /net/software/testing/software/jdftx/1.7.0-foss-2021b-mkl/share/jdftx/pseudopotentials/SG15/Na_ONCV_PBE.pulay ... using dE_dnG = -1.681960e+00 computed for Ecut = 10.

Initialized 1 species with 7 total atoms.

Folded 1 k-points by 11x11x1 to 121 k-points.

---------- Setting up k-points, bands, fillings ----------
Reduced to 21 k-points under symmetry. 
Computing the number of bands and number of electrons
Calculating initial fillings.
nElectrons:  63.000000   nBands: 35   nStates: 21

----- Setting up reduced wavefunction bases (one per k-point) -----
average nbasis = 6581.083 , ideal nbasis = 6580.426

----- Initializing Supercell corresponding to k-point mesh -----
Lattice vector linear combinations in supercell:
[  11   0   0  ]
[   0  11   0  ]
[   0   0   1  ]
Supercell lattice vectors:
[  87.3039  0  0  ]
[  0  87.3039  0  ]
[  0  0  69.1637  ]

---------- Setting up coulomb interaction ----------
Setting up double-sized grid for truncated Coulomb potentials:
R = 
[      7.93671            0            0  ]
[            0      7.93671            0  ]
[            0            0      138.327  ]
unit cell volume = 8713.45
G =
[   0.791661          0          0  ]
[         -0   0.791661          0  ]
[          0         -0  0.0454225  ]
Chosen fftbox size, S = [  24  24  400  ]
Integer grid location selected as the embedding center:
   Grid: [  0  0  100  ]
   Lattice: [  0  0  0.5  ]
   Cartesian: [  0  0  34.5819  ]
Constructing Wigner-Seitz cell: 6 faces (6 quadrilaterals, 0 hexagons)
Range-separation parameter for embedded mesh potentials due to point charges: 0.741881 bohrs.
Initialized slab truncation along lattice direction 001

---------- Setting up 2D ewald sum ----------
Optimum gaussian width for ewald sums = 4.734710 bohr.
Real space sums over 225 unit cells with max indices [  7  7  0  ]
Reciprocal space sums over 81 terms with max indices [  4  4  0  ]

---------- Allocating electronic variables ----------
Initializing wave functions:  linear combination of atomic orbitals
Na pseudo-atom occupations:   s ( 2 1 )  p ( 6 )
	FillingsUpdate:  mu: -0.037441952  nElectrons: 63.000000
LCAOMinimize: Iter:   0  F: -291.6941040481321465  |grad|_K:  3.541e-03  alpha:  1.000e+00
	FillingsUpdate:  mu: -0.162747283  nElectrons: 63.000000
LCAOMinimize: Iter:   1  F: -291.7105761957050163  |grad|_K:  9.258e-04  alpha:  1.166e-01  linmin:  1.246e-01  cgtest: -7.268e-01  t[s]:      0.79
	FillingsUpdate:  mu: -0.177290224  nElectrons: 63.000000
LCAOMinimize: Iter:   2  F: -291.7114719835957999  |grad|_K:  1.270e-03  alpha:  2.836e-01  linmin: -1.699e-04  cgtest:  9.432e-01  t[s]:      1.06
	FillingsUpdate:  mu: -0.137230476  nElectrons: 63.000000
LCAOMinimize: Iter:   3  F: -291.7139378076671505  |grad|_K:  2.605e-04  alpha:  1.116e-01  linmin: -1.118e-03  cgtest: -2.672e-01  t[s]:      1.33
LCAOMinimize: 	Predicted alpha/alphaT>3.000000, increasing alphaT to 3.348223e-01.
	FillingsUpdate:  mu: -0.140513794  nElectrons: 63.000000
LCAOMinimize: Iter:   4  F: -291.7146208609808582  |grad|_K:  1.819e-05  alpha:  7.136e-01  linmin: -2.925e-02  cgtest:  4.788e-01  t[s]:      1.71
LCAOMinimize: Encountered beta<0, resetting CG.
	FillingsUpdate:  mu: -0.139690910  nElectrons: 63.000000
LCAOMinimize: Iter:   5  F: -291.7146220581370812  |grad|_K:  2.090e-05  alpha:  2.660e-01  linmin: -4.629e-06  cgtest:  1.058e-03  t[s]:      1.98
	FillingsUpdate:  mu: -0.140086293  nElectrons: 63.000000
LCAOMinimize: Iter:   6  F: -291.7146239416388767  |grad|_K:  3.993e-06  alpha:  3.166e-01  linmin: -7.641e-05  cgtest: -1.463e-02  t[s]:      2.25
	FillingsUpdate:  mu: -0.140158759  nElectrons: 63.000000
LCAOMinimize: Iter:   7  F: -291.7146240417977197  |grad|_K:  3.907e-07  alpha:  4.619e-01  linmin:  7.841e-04  cgtest: -3.080e-02  t[s]:      2.52
	FillingsUpdate:  mu: -0.140172252  nElectrons: 63.000000
LCAOMinimize: Iter:   8  F: -291.7146240421843686  |grad|_K:  3.136e-07  alpha:  1.698e-01  linmin:  5.558e-04  cgtest: -2.835e-03  t[s]:      2.80
LCAOMinimize: Converged (|Delta F|<1.000000e-06 for 2 iters).


---- Citations for features of the code used in this run ----

   Software package:
      R. Sundararaman, K. Letchworth-Weaver, K.A. Schwarz, D. Gunceler, Y. Ozhabes and T.A. Arias, 'JDFTx: software for joint density-functional theory', SoftwareX 6, 278 (2017)

   gga-PBE exchange-correlation functional:
      J.P. Perdew, K. Burke and M. Ernzerhof, Phys. Rev. Lett. 77, 3865 (1996)

   Pseudopotentials:
      M Schlipf and F Gygi, Comput. Phys. Commun. 196, 36 (2015)

   Truncated Coulomb potentials:
      R. Sundararaman and T.A. Arias, Phys. Rev. B 87, 165122 (2013)

   Total energy minimization with Auxiliary Hamiltonian:
      C. Freysoldt, S. Boeck, and J. Neugebauer, Phys. Rev. B 79, 241103(R) (2009)

   Linear-tetrahedron sampling for density of states:
      G. Lehmann and M. Taut, Phys. status solidi (b) 54, 469 (1972)

This list may not be complete. Please suggest additional citations or
report any other bugs at https://github.com/shankar1729/jdftx/issues

Initialization completed successfully at t[s]:      2.83


-------- Electronic minimization -----------
	FillingsUpdate:  mu: -0.140172252  nElectrons: 63.000000
ElecMinimize: Iter:   0  F: -291.714624042181640  |grad|_K:  5.438e-04  alpha:  1.000e+00
	FillingsUpdate:  mu: -0.129125743  nElectrons: 63.000000
	SubspaceRotationAdjust: set factor to 1
ElecMinimize: Iter:   1  F: -292.131852960758749  |grad|_K:  1.387e-04  alpha:  2.918e-01  linmin:  3.293e-03  t[s]:      3.49
	FillingsUpdate:  mu: -0.139358680  nElectrons: 63.000000
	SubspaceRotationAdjust: set factor to 0.998
ElecMinimize: Iter:   2  F: -292.164573815908568  |grad|_K:  6.126e-05  alpha:  3.525e-01  linmin:  8.113e-06  t[s]:      3.89
	FillingsUpdate:  mu: -0.102586663  nElectrons: 63.000000
	SubspaceRotationAdjust: set factor to 0.852
ElecMinimize: Iter:   3  F: -292.172654697638393  |grad|_K:  6.593e-05  alpha:  4.445e-01  linmin:  1.101e-05  t[s]:      4.29
	FillingsUpdate:  mu: -0.143154950  nElectrons: 63.000000
	SubspaceRotationAdjust: set factor to 0.535
ElecMinimize: Iter:   4  F: -292.176982842837560  |grad|_K:  5.321e-05  alpha:  2.026e-01  linmin: -7.245e-05  t[s]:      4.69
	FillingsUpdate:  mu: -0.129788258  nElectrons: 63.000000
	SubspaceRotationAdjust: set factor to 0.63
ElecMinimize: Iter:   5  F: -292.185031030387279  |grad|_K:  4.955e-05  alpha:  5.832e-01  linmin:  3.058e-05  t[s]:      5.10
	FillingsUpdate:  mu: -0.096656252  nElectrons: 63.000000
	SubspaceRotationAdjust: set factor to 0.542
ElecMinimize: Iter:   6  F: -292.190158732093380  |grad|_K:  4.417e-05  alpha:  4.308e-01  linmin: -2.792e-05  t[s]:      5.50
	FillingsUpdate:  mu: -0.121558545  nElectrons: 63.000000

Dumping 'X.fillings' ... done
Dumping 'X.wfns' ... done
Dumping 'X.force' ... done
Dumping 'X.eigenvals' ... done
	SubspaceRotationAdjust: set factor to 0.381
ElecMinimize: Iter:   7  F: -292.193112909285674  |grad|_K:  3.066e-05  alpha:  3.106e-01  linmin:  1.493e-05  t[s]:      5.97
	FillingsUpdate:  mu: -0.114918420  nElectrons: 63.000000
	SubspaceRotationAdjust: set factor to 0.438
ElecMinimize: Iter:   8  F: -292.194984442087105  |grad|_K:  2.298e-05  alpha:  4.112e-01  linmin:  7.348e-06  t[s]:      6.38
	FillingsUpdate:  mu: -0.104989919  nElectrons: 63.000000
	SubspaceRotationAdjust: set factor to 0.413
ElecMinimize: Iter:   9  F: -292.196055881461405  |grad|_K:  1.845e-05  alpha:  4.188e-01  linmin:  3.265e-06  t[s]:      6.79
	FillingsUpdate:  mu: -0.113973068  nElectrons: 63.000000
	SubspaceRotationAdjust: set factor to 0.377
ElecMinimize: Iter:  10  F: -292.196861361333617  |grad|_K:  1.591e-05  alpha:  4.886e-01  linmin:  2.812e-06  t[s]:      7.19
	FillingsUpdate:  mu: -0.113170489  nElectrons: 63.000000
	SubspaceRotationAdjust: set factor to 0.392
ElecMinimize: Iter:  11  F: -292.197473713013494  |grad|_K:  1.406e-05  alpha:  4.992e-01  linmin:  2.371e-06  t[s]:      7.59
	FillingsUpdate:  mu: -0.109044324  nElectrons: 63.000000
	SubspaceRotationAdjust: set factor to 0.379
ElecMinimize: Iter:  12  F: -292.197915094366692  |grad|_K:  1.181e-05  alpha:  4.608e-01  linmin:  2.044e-06  t[s]:      8.00
	FillingsUpdate:  mu: -0.112430893  nElectrons: 63.000000
	SubspaceRotationAdjust: set factor to 0.382
ElecMinimize: Iter:  13  F: -292.198223561689417  |grad|_K:  9.197e-06  alpha:  4.561e-01  linmin:  3.725e-06  t[s]:      8.41
	FillingsUpdate:  mu: -0.112867672  nElectrons: 63.000000
	SubspaceRotationAdjust: set factor to 0.401
ElecMinimize: Iter:  14  F: -292.198415739922780  |grad|_K:  7.808e-06  alpha:  4.688e-01  linmin:  1.973e-06  t[s]:      8.81
	FillingsUpdate:  mu: -0.111098613  nElectrons: 63.000000

Dumping 'X.fillings' ... done
Dumping 'X.wfns' ... done
Dumping 'X.force' ... done
Dumping 'X.eigenvals' ... done
	SubspaceRotationAdjust: set factor to 0.407
ElecMinimize: Iter:  15  F: -292.198558811695364  |grad|_K:  7.071e-06  alpha:  4.840e-01  linmin:  6.531e-07  t[s]:      9.29
	FillingsUpdate:  mu: -0.112515963  nElectrons: 63.000000
	SubspaceRotationAdjust: set factor to 0.413
ElecMinimize: Iter:  16  F: -292.198684067543979  |grad|_K:  6.288e-06  alpha:  5.168e-01  linmin:  3.244e-06  t[s]:      9.69
	FillingsUpdate:  mu: -0.112714210  nElectrons: 63.000000
	SubspaceRotationAdjust: set factor to 0.419
ElecMinimize: Iter:  17  F: -292.198776928987172  |grad|_K:  5.334e-06  alpha:  4.848e-01  linmin:  1.382e-06  t[s]:     10.10
	FillingsUpdate:  mu: -0.111968932  nElectrons: 63.000000
	SubspaceRotationAdjust: set factor to 0.416
ElecMinimize: Iter:  18  F: -292.198837470496073  |grad|_K:  4.318e-06  alpha:  4.390e-01  linmin:  6.976e-07  t[s]:     10.50
	FillingsUpdate:  mu: -0.113089018  nElectrons: 63.000000
	SubspaceRotationAdjust: set factor to 0.413
ElecMinimize: Iter:  19  F: -292.198881403677376  |grad|_K:  3.744e-06  alpha:  4.861e-01  linmin:  3.747e-06  t[s]:     10.90
	FillingsUpdate:  mu: -0.112993951  nElectrons: 63.000000
	SubspaceRotationAdjust: set factor to 0.424
ElecMinimize: Iter:  20  F: -292.198915756434076  |grad|_K:  3.443e-06  alpha:  5.057e-01  linmin:  2.975e-06  t[s]:     11.30
	FillingsUpdate:  mu: -0.112513862  nElectrons: 63.000000
	SubspaceRotationAdjust: set factor to 0.431
ElecMinimize: Iter:  21  F: -292.198944486253367  |grad|_K:  3.134e-06  alpha:  4.998e-01  linmin:  4.941e-06  t[s]:     11.71
	FillingsUpdate:  mu: -0.113543259  nElectrons: 63.000000
	SubspaceRotationAdjust: set factor to 0.423
ElecMinimize: Iter:  22  F: -292.198968408431995  |grad|_K:  2.789e-06  alpha:  5.025e-01  linmin:  1.237e-06  t[s]:     12.12
	FillingsUpdate:  mu: -0.113275700  nElectrons: 63.000000

Dumping 'X.fillings' ... done
Dumping 'X.wfns' ... done
Dumping 'X.force' ... done
Dumping 'X.eigenvals' ... done
	SubspaceRotationAdjust: set factor to 0.433
ElecMinimize: Iter:  23  F: -292.198986866974280  |grad|_K:  2.459e-06  alpha:  4.894e-01  linmin:  2.570e-07  t[s]:     12.59
	FillingsUpdate:  mu: -0.112803469  nElectrons: 63.000000
	SubspaceRotationAdjust: set factor to 0.432
ElecMinimize: Iter:  24  F: -292.199001525958295  |grad|_K:  2.254e-06  alpha:  5.001e-01  linmin:  8.595e-07  t[s]:     13.00
	FillingsUpdate:  mu: -0.113556163  nElectrons: 63.000000
	SubspaceRotationAdjust: set factor to 0.414
ElecMinimize: Iter:  25  F: -292.199013871734167  |grad|_K:  2.050e-06  alpha:  5.011e-01  linmin:  3.831e-07  t[s]:     13.41
	FillingsUpdate:  mu: -0.113272448  nElectrons: 63.000000
	SubspaceRotationAdjust: set factor to 0.424
ElecMinimize: Iter:  26  F: -292.199024576156887  |grad|_K:  1.928e-06  alpha:  5.252e-01  linmin:  4.920e-07  t[s]:     13.81
	FillingsUpdate:  mu: -0.112852447  nElectrons: 63.000000
	SubspaceRotationAdjust: set factor to 0.429
ElecMinimize: Iter:  27  F: -292.199033807195690  |grad|_K:  1.793e-06  alpha:  5.120e-01  linmin:  4.415e-06  t[s]:     14.22
	FillingsUpdate:  mu: -0.113355091  nElectrons: 63.000000
	SubspaceRotationAdjust: set factor to 0.421
ElecMinimize: Iter:  28  F: -292.199041585275154  |grad|_K:  1.600e-06  alpha:  4.992e-01  linmin:  3.939e-06  t[s]:     14.63
	FillingsUpdate:  mu: -0.113136962  nElectrons: 63.000000
	SubspaceRotationAdjust: set factor to 0.433
ElecMinimize: Iter:  29  F: -292.199047800492224  |grad|_K:  1.444e-06  alpha:  5.012e-01  linmin:  4.264e-07  t[s]:     15.04
	FillingsUpdate:  mu: -0.112867355  nElectrons: 63.000000
	SubspaceRotationAdjust: set factor to 0.436
ElecMinimize: Iter:  30  F: -292.199052885022411  |grad|_K:  1.322e-06  alpha:  5.029e-01  linmin:  3.489e-07  t[s]:     15.44
	FillingsUpdate:  mu: -0.113202868  nElectrons: 63.000000

Dumping 'X.fillings' ... done
Dumping 'X.wfns' ... done
Dumping 'X.force' ... done
Dumping 'X.eigenvals' ... done
	SubspaceRotationAdjust: set factor to 0.424
ElecMinimize: Iter:  31  F: -292.199057082993932  |grad|_K:  1.168e-06  alpha:  4.957e-01  linmin:  1.066e-06  t[s]:     15.94
	FillingsUpdate:  mu: -0.113045880  nElectrons: 63.000000
	SubspaceRotationAdjust: set factor to 0.428
ElecMinimize: Iter:  32  F: -292.199060262735770  |grad|_K:  1.012e-06  alpha:  4.810e-01  linmin:  1.928e-07  t[s]:     16.34
	FillingsUpdate:  mu: -0.112970404  nElectrons: 63.000000
	SubspaceRotationAdjust: set factor to 0.437
ElecMinimize: Iter:  33  F: -292.199062702259084  |grad|_K:  9.051e-07  alpha:  4.913e-01  linmin:  4.200e-07  t[s]:     16.74
	FillingsUpdate:  mu: -0.113185433  nElectrons: 63.000000
	SubspaceRotationAdjust: set factor to 0.436
ElecMinimize: Iter:  34  F: -292.199064675674038  |grad|_K:  8.169e-07  alpha:  4.968e-01  linmin:  7.218e-07  t[s]:     17.15
	FillingsUpdate:  mu: -0.113047686  nElectrons: 63.000000
	SubspaceRotationAdjust: set factor to 0.44
ElecMinimize: Iter:  35  F: -292.199066312937077  |grad|_K:  7.465e-07  alpha:  5.060e-01  linmin:  5.972e-07  t[s]:     17.55
	FillingsUpdate:  mu: -0.113053929  nElectrons: 63.000000
	SubspaceRotationAdjust: set factor to 0.45
ElecMinimize: Iter:  36  F: -292.199067678216466  |grad|_K:  6.783e-07  alpha:  5.054e-01  linmin:  2.589e-07  t[s]:     17.96
	FillingsUpdate:  mu: -0.113183219  nElectrons: 63.000000
	SubspaceRotationAdjust: set factor to 0.446
ElecMinimize: Iter:  37  F: -292.199068780071400  |grad|_K:  6.072e-07  alpha:  4.939e-01  linmin: -8.548e-08  t[s]:     18.36
	FillingsUpdate:  mu: -0.113033719  nElectrons: 63.000000
	SubspaceRotationAdjust: set factor to 0.438
ElecMinimize: Iter:  38  F: -292.199069676312263  |grad|_K:  5.601e-07  alpha:  5.013e-01  linmin:  1.499e-07  t[s]:     18.76
	FillingsUpdate:  mu: -0.113097608  nElectrons: 63.000000

Dumping 'X.fillings' ... done
Dumping 'X.wfns' ... done
Dumping 'X.force' ... done
Dumping 'X.eigenvals' ... done
	SubspaceRotationAdjust: set factor to 0.444
ElecMinimize: Iter:  39  F: -292.199070477091311  |grad|_K:  5.361e-07  alpha:  5.266e-01  linmin:  6.834e-07  t[s]:     20.34
ElecMinimize: Converged (|Delta F|<1.000000e-06 for 2 iters).
Setting wave functions to eigenvectors of Hamiltonian

# Ionic positions in lattice coordinates:
ion Na   0.000000000000000   0.000000000000000   0.327870000000000 1
ion Na   0.500000000000000   0.500000000000000   0.385250000000000 1
ion Na   0.000000000000000   0.000000000000000   0.442620000000000 1
ion Na   0.500000000000000   0.500000000000000   0.500000000000000 1
ion Na   0.000000000000000   0.000000000000000   0.557380000000000 1
ion Na   0.500000000000000   0.500000000000000   0.614750000000000 1
ion Na   0.000000000000000   0.000000000000000   0.672130000000000 1

# Forces in Lattice coordinates:
force Na   0.000000000000000  -0.000000000000000   0.037236287939060 1
force Na   0.000000000000000   0.000000000000000   0.018433164974487 1
force Na  -0.000000000000000  -0.000000000000000   0.010080135399397 1
force Na   0.000000000000000   0.000000000000000   0.000000000000000 1
force Na   0.000000000000000  -0.000000000000000  -0.010080135399397 1
force Na  -0.000000000000000   0.000000000000000  -0.018433164974033 1
force Na   0.000000000000000   0.000000000000000  -0.037236287938605 1

# Energy components:
   Eewald =    -1942.9223310030267839
       EH =    -1716.5483280923290295
     Eloc =     3350.7890490203890295
      Enl =      -80.8375433918310193
   Epulay =        0.0017741490955552
      Exc =      -41.8255719951608000
       KE =      139.1706228611482175
-------------------------------------
     Etot =     -292.1723284517145203
       TS =        0.0267420253768140
-------------------------------------
        F =     -292.1990704770913112

IonicMinimize: Iter:   0  F: -292.199070477091311  |grad|_K:  1.908e-04  t[s]:     20.43
IonicMinimize: None of the convergence criteria satisfied after 0 iterations.

#--- Lowdin population analysis ---
# oxidation-state Na +0.070 +0.045 +0.037 +0.051 +0.037 +0.045 +0.070


Dumping 'X.fillings' ... done
Dumping 'X.wfns' ... done
Dumping 'X.ionpos' ... done
Dumping 'X.lattice' ... done
Dumping 'X.n' ... done
Dumping 'X.eigenvals' ... done
Dumping 'X.eigStats' ... 
	eMin: -2.307162 at state 7 ( [ +0.090909 +0.181818 +0.000000 ] spin 0 )
	HOMO: -0.114127 at state 9 ( [ +0.090909 +0.363636 +0.000000 ] spin 0 )
	mu  : -0.113098
	LUMO: -0.111901 at state 17 ( [ +0.272727 +0.454545 +0.000000 ] spin 0 )
	eMax: -0.019829 at state 11 ( [ +0.181818 +0.181818 +0.000000 ] spin 0 )
	HOMO-LUMO gap: +0.002226
	Optical gap  : +0.004954 at state 14 ( [ +0.181818 +0.454545 +0.000000 ] spin 0 )
Dumping 'X.dos' ... done.
End date and time: Wed Nov  8 23:49:51 2023  (Duration: 0-0:00:20.56)
Done!

*************** JDFTx 1.7.0  ***************

Start date and time: Wed Nov  8 23:49:53 2023
Executable jdftx with command-line: -m -i X.in -o X.out
Running on hosts (process indices):  ac0015 (0-20)
Divided in process groups (process indices):  0 (0)  1 (1)  2 (2)  3 (3)  4 (4)  5 (5)  6 (6)  7 (7)  8 (8)  9 (9)  10 (10)  11 (11)  12 (12)  13 (13)  14 (14)  15 (15)  16 (16)  17 (17)  18 (18)  19 (19)  20 (20)
Resource initialization completed at t[s]:      0.02
Run totals: 21 processes, 21 threads, 0 GPUs


Input parsed successfully to the following command list (including defaults):

basis kpoint-dependent
cache-projectors no
coords-type Lattice
core-overlap-check vector
coulomb-interaction Slab 001
coulomb-truncation-embed 0 0 0.5
davidson-band-ratio 1.1
density-of-states Etol 1.000000e-06 Esigma 0.000000e+00 \
		Complete \
	Total \
		Occupied \
	Total
dump End State IonicPositions Lattice ElecDensity CoreDensity EigStats DOS
dump Electronic State Forces
dump Ionic State IonicPositions Forces Lattice DOS
dump-interval Electronic 8
dump-interval Ionic 4
dump-name X.$var
elec-cutoff 20
elec-eigen-algo Davidson
elec-ex-corr gga-PBE
elec-smearing Fermi 0.0095
electronic-minimize  \
	dirUpdateScheme      FletcherReeves \
	linminMethod         DirUpdateRecommended \
	nIterations          2000 \
	history              15 \
	knormThreshold       0 \
	energyDiffThreshold  1e-07 \
	nEnergyDiff          2 \
	alphaTstart          1 \
	alphaTmin            1e-10 \
	updateTestStepSize   yes \
	alphaTreduceFactor   0.1 \
	alphaTincreaseFactor 3 \
	nAlphaAdjustMax      3 \
	wolfeEnergy          0.0001 \
	wolfeGradient        0.9 \
	fdTest               no
exchange-regularization WignerSeitzTruncated
fluid None
fluid-ex-corr (null) lda-PZ
fluid-gummel-loop 10 1.000000e-05
fluid-minimize  \
	dirUpdateScheme      PolakRibiere \
	linminMethod         DirUpdateRecommended \
	nIterations          100 \
	history              15 \
	knormThreshold       0 \
	energyDiffThreshold  0 \
	nEnergyDiff          2 \
	alphaTstart          1 \
	alphaTmin            1e-10 \
	updateTestStepSize   yes \
	alphaTreduceFactor   0.1 \
	alphaTincreaseFactor 3 \
	nAlphaAdjustMax      3 \
	wolfeEnergy          0.0001 \
	wolfeGradient        0.9 \
	fdTest               no
fluid-solvent H2O 55.338 ScalarEOS \
	epsBulk 78.4 \
	pMol 0.92466 \
	epsInf 1.77 \
	Pvap 1.06736e-10 \
	sigmaBulk 4.62e-05 \
	Rvdw 2.61727 \
	Res 1.42 \
	tauNuc 343133 \
	poleEl 15 7 1
forces-output-coords Positions
ion Na   0.000000000000000   0.000000000000000   0.327870000000000 1
ion Na   0.500000000000000   0.500000000000000   0.385250000000000 1
ion Na   0.000000000000000   0.000000000000000   0.442620000000000 1
ion Na   0.500000000000000   0.500000000000000   0.500000000000000 1
ion Na   0.000000000000000   0.000000000000000   0.557380000000000 1
ion Na   0.500000000000000   0.500000000000000   0.614750000000000 1
ion Na   0.000000000000000   0.000000000000000   0.672130000000000 1
ion-species SG15/$ID_ONCV_PBE.upf
ion-width 0
ionic-minimize  \
	dirUpdateScheme      L-BFGS \
	linminMethod         DirUpdateRecommended \
	nIterations          0 \
	history              15 \
	knormThreshold       0.0001 \
	energyDiffThreshold  1e-06 \
	nEnergyDiff          2 \
	alphaTstart          1 \
	alphaTmin            1e-10 \
	updateTestStepSize   yes \
	alphaTreduceFactor   0.1 \
	alphaTincreaseFactor 3 \
	nAlphaAdjustMax      3 \
	wolfeEnergy          0.0001 \
	wolfeGradient        0.9 \
	fdTest               no
kpoint   0.000000000000   0.000000000000   0.000000000000  1.00000000000000
kpoint-folding 11 11 1 
latt-move-scale 1 1 1
latt-scale 1 1 1 
lattice  \
	   7.936714821600003   -0.000000000000000   -0.000000000000000  \
	   0.000000000000000    7.936714821600003   -0.000000000000000  \
	   0.000000000000000    0.000000000000000   69.163740054000002 
lattice-minimize  \
	dirUpdateScheme      L-BFGS \
	linminMethod         DirUpdateRecommended \
	nIterations          0 \
	history              15 \
	knormThreshold       0 \
	energyDiffThreshold  1e-06 \
	nEnergyDiff          2 \
	alphaTstart          1 \
	alphaTmin            1e-10 \
	updateTestStepSize   yes \
	alphaTreduceFactor   0.1 \
	alphaTincreaseFactor 3 \
	nAlphaAdjustMax      3 \
	wolfeEnergy          0.0001 \
	wolfeGradient        0.9 \
	fdTest               no
lcao-params -1 1e-06 0.0095
pcm-variant GLSSA13
spintype no-spin
subspace-rotation-factor 1 yes
symmetries automatic
symmetry-threshold 0.0001
wavefunction read X.wfns 35 10.000000



---------- Setting up symmetries ----------

Found 16 point-group symmetries of the bravais lattice
Found 16 space-group symmetries with basis
Applied RMS atom displacement 0 bohrs to make symmetries exact.

---------- Initializing the Grid ----------
R = 
[      7.93671            0            0  ]
[            0      7.93671            0  ]
[            0            0      69.1637  ]
unit cell volume = 4356.72
G =
[   0.791661          0          0  ]
[         -0   0.791661          0  ]
[          0         -0  0.0908451  ]
Minimum fftbox size, Smin = [  32  32  280  ]
Chosen fftbox size, S = [  32  32  280  ]

---------- Exchange Correlation functional ----------
Initalized PBE GGA exchange.
Initalized PBE GGA correlation.

---------- Setting up pseudopotentials ----------
Width of ionic core gaussian charges (only for fluid interactions / plotting) set to 0

Reading pseudopotential file '/net/software/testing/software/jdftx/1.7.0-foss-2021b-mkl/share/jdftx/pseudopotentials/SG15/Na_ONCV_PBE.upf':
  'Na' pseudopotential, 'PBE' functional
  Generated using ONCVPSP code by D. R. Hamann
  Author: Martin Schlipf and Francois Gygi  Date: 150915.
  9 valence electrons, 3 orbitals, 4 projectors, 1992 radial grid points, with lMax = 1
  Transforming local potential to a uniform radial grid of dG=0.02 with 1104 points.
  Transforming nonlocal projectors to a uniform radial grid of dG=0.02 with 432 points.
    2S    l: 0   occupation:  2.0   eigenvalue: -2.085640
    2P    l: 1   occupation:  6.0   eigenvalue: -1.053708
    3S    l: 0   occupation:  1.0   eigenvalue: -0.100838
  Transforming atomic orbitals to a uniform radial grid of dG=0.02 with 432 points.
  Core radius for overlap checks: 2.01 bohrs.
  Reading pulay file /net/software/testing/software/jdftx/1.7.0-foss-2021b-mkl/share/jdftx/pseudopotentials/SG15/Na_ONCV_PBE.pulay ... using dE_dnG = -2.946487e-03 computed for Ecut = 20.

Initialized 1 species with 7 total atoms.

Folded 1 k-points by 11x11x1 to 121 k-points.

---------- Setting up k-points, bands, fillings ----------
Reduced to 21 k-points under symmetry. 
Computing the number of bands and number of electrons
Calculating initial fillings.
nElectrons:  63.000000   nBands: 35   nStates: 21

----- Setting up reduced wavefunction bases (one per k-point) -----
average nbasis = 18612.355 , ideal nbasis = 18612.256

----- Initializing Supercell corresponding to k-point mesh -----
Lattice vector linear combinations in supercell:
[  11   0   0  ]
[   0  11   0  ]
[   0   0   1  ]
Supercell lattice vectors:
[  87.3039  0  0  ]
[  0  87.3039  0  ]
[  0  0  69.1637  ]

---------- Setting up coulomb interaction ----------
Setting up double-sized grid for truncated Coulomb potentials:
R = 
[      7.93671            0            0  ]
[            0      7.93671            0  ]
[            0            0      138.327  ]
unit cell volume = 8713.45
G =
[   0.791661          0          0  ]
[         -0   0.791661          0  ]
[          0         -0  0.0454225  ]
Chosen fftbox size, S = [  32  32  560  ]
Integer grid location selected as the embedding center:
   Grid: [  0  0  140  ]
   Lattice: [  0  0  0.5  ]
   Cartesian: [  0  0  34.5819  ]
Constructing Wigner-Seitz cell: 6 faces (6 quadrilaterals, 0 hexagons)
Range-separation parameter for embedded mesh potentials due to point charges: 0.628283 bohrs.
Initialized slab truncation along lattice direction 001

---------- Setting up 2D ewald sum ----------
Optimum gaussian width for ewald sums = 4.734710 bohr.
Real space sums over 225 unit cells with max indices [  7  7  0  ]
Reciprocal space sums over 81 terms with max indices [  4  4  0  ]

---------- Allocating electronic variables ----------
Initializing wave functions:  reading from 'X.wfns'


---- Citations for features of the code used in this run ----

   Software package:
      R. Sundararaman, K. Letchworth-Weaver, K.A. Schwarz, D. Gunceler, Y. Ozhabes and T.A. Arias, 'JDFTx: software for joint density-functional theory', SoftwareX 6, 278 (2017)

   gga-PBE exchange-correlation functional:
      J.P. Perdew, K. Burke and M. Ernzerhof, Phys. Rev. Lett. 77, 3865 (1996)

   Pseudopotentials:
      M Schlipf and F Gygi, Comput. Phys. Commun. 196, 36 (2015)

   Truncated Coulomb potentials:
      R. Sundararaman and T.A. Arias, Phys. Rev. B 87, 165122 (2013)

   Total energy minimization with Auxiliary Hamiltonian:
      C. Freysoldt, S. Boeck, and J. Neugebauer, Phys. Rev. B 79, 241103(R) (2009)

   Linear-tetrahedron sampling for density of states:
      G. Lehmann and M. Taut, Phys. status solidi (b) 54, 469 (1972)

This list may not be complete. Please suggest additional citations or
report any other bugs at https://github.com/shankar1729/jdftx/issues

Initialization completed successfully at t[s]:      1.52


Setting the auxilliary hamiltonian equal to the subspace hamiltonian.

-------- Electronic minimization -----------
	FillingsUpdate:  mu: -0.125968985  nElectrons: 63.000000
ElecMinimize: Iter:   0  F: -292.195982833220512  |grad|_K:  1.255e-03  alpha:  1.000e+00
	FillingsUpdate:  mu: -0.092653879  nElectrons: 63.000000
	SubspaceRotationAdjust: set factor to 1
ElecMinimize: Iter:   1  F: -297.582464662413088  |grad|_K:  3.895e-04  alpha:  2.751e-01  linmin:  1.942e-02  t[s]:      5.91
	FillingsUpdate:  mu: -0.121189183  nElectrons: 63.000000
	SubspaceRotationAdjust: set factor to 0.993
ElecMinimize: Iter:   2  F: -298.130443054426962  |grad|_K:  9.613e-05  alpha:  2.901e-01  linmin: -1.060e-03  t[s]:      7.69
	FillingsUpdate:  mu: -0.056424200  nElectrons: 63.000000
	SubspaceRotationAdjust: set factor to 0.739
ElecMinimize: Iter:   3  F: -298.162320194298275  |grad|_K:  5.795e-05  alpha:  2.501e-01  linmin:  3.679e-05  t[s]:      9.58
	FillingsUpdate:  mu: -0.112058731  nElectrons: 63.000000
	SubspaceRotationAdjust: set factor to 0.409
ElecMinimize: Iter:   4  F: -298.168995053552067  |grad|_K:  2.903e-05  alpha:  1.418e-01  linmin: -8.499e-05  t[s]:     11.45
	FillingsUpdate:  mu: -0.106242624  nElectrons: 63.000000
	SubspaceRotationAdjust: set factor to 0.635
ElecMinimize: Iter:   5  F: -298.172373403650852  |grad|_K:  1.611e-05  alpha:  2.906e-01  linmin:  9.541e-06  t[s]:     13.35
	FillingsUpdate:  mu: -0.090385504  nElectrons: 63.000000
	SubspaceRotationAdjust: set factor to 0.541
ElecMinimize: Iter:   6  F: -298.173651852220473  |grad|_K:  1.281e-05  alpha:  3.610e-01  linmin:  4.600e-05  t[s]:     15.27
	FillingsUpdate:  mu: -0.105349918  nElectrons: 63.000000

Dumping 'X.fillings' ... done
Dumping 'X.wfns' ... done
Dumping 'X.force' ... done
Dumping 'X.eigenvals' ... done
	SubspaceRotationAdjust: set factor to 0.388
ElecMinimize: Iter:   7  F: -298.174425959149914  |grad|_K:  1.047e-05  alpha:  3.463e-01  linmin:  2.489e-05  t[s]:     17.29
	FillingsUpdate:  mu: -0.100712153  nElectrons: 63.000000
	SubspaceRotationAdjust: set factor to 0.399
ElecMinimize: Iter:   8  F: -298.175074587298070  |grad|_K:  7.771e-06  alpha:  4.354e-01  linmin:  1.580e-05  t[s]:     19.14
	FillingsUpdate:  mu: -0.097464406  nElectrons: 63.000000
	SubspaceRotationAdjust: set factor to 0.393
ElecMinimize: Iter:   9  F: -298.175396612157499  |grad|_K:  5.899e-06  alpha:  3.911e-01  linmin:  3.207e-06  t[s]:     21.04
	FillingsUpdate:  mu: -0.102729369  nElectrons: 63.000000
	SubspaceRotationAdjust: set factor to 0.356
ElecMinimize: Iter:  10  F: -298.175602964835093  |grad|_K:  4.601e-06  alpha:  4.336e-01  linmin:  1.273e-05  t[s]:     22.85
	FillingsUpdate:  mu: -0.101161643  nElectrons: 63.000000
	SubspaceRotationAdjust: set factor to 0.386
ElecMinimize: Iter:  11  F: -298.175750172412222  |grad|_K:  4.133e-06  alpha:  5.085e-01  linmin:  8.538e-06  t[s]:     24.64
	FillingsUpdate:  mu: -0.099789653  nElectrons: 63.000000
	SubspaceRotationAdjust: set factor to 0.405
ElecMinimize: Iter:  12  F: -298.175865982015978  |grad|_K:  3.877e-06  alpha:  4.955e-01  linmin:  1.057e-06  t[s]:     26.47
	FillingsUpdate:  mu: -0.101980846  nElectrons: 63.000000
	SubspaceRotationAdjust: set factor to 0.399
ElecMinimize: Iter:  13  F: -298.175959954323389  |grad|_K:  3.093e-06  alpha:  4.569e-01  linmin: -2.048e-06  t[s]:     28.34
	FillingsUpdate:  mu: -0.101348862  nElectrons: 63.000000
	SubspaceRotationAdjust: set factor to 0.406
ElecMinimize: Iter:  14  F: -298.176017769811779  |grad|_K:  2.381e-06  alpha:  4.413e-01  linmin: -1.541e-06  t[s]:     30.13
	FillingsUpdate:  mu: -0.101034991  nElectrons: 63.000000

Dumping 'X.fillings' ... done
Dumping 'X.wfns' ... done
Dumping 'X.force' ... done
Dumping 'X.eigenvals' ... done
	SubspaceRotationAdjust: set factor to 0.405
ElecMinimize: Iter:  15  F: -298.176053059203696  |grad|_K:  1.997e-06  alpha:  4.546e-01  linmin: -9.478e-07  t[s]:     32.11
	FillingsUpdate:  mu: -0.101853656  nElectrons: 63.000000
	SubspaceRotationAdjust: set factor to 0.396
ElecMinimize: Iter:  16  F: -298.176078051355319  |grad|_K:  1.727e-06  alpha:  4.578e-01  linmin: -2.377e-07  t[s]:     33.86
	FillingsUpdate:  mu: -0.101367931  nElectrons: 63.000000
	SubspaceRotationAdjust: set factor to 0.4
ElecMinimize: Iter:  17  F: -298.176098921291896  |grad|_K:  1.579e-06  alpha:  5.112e-01  linmin: -5.657e-07  t[s]:     35.69
	FillingsUpdate:  mu: -0.101371974  nElectrons: 63.000000
	SubspaceRotationAdjust: set factor to 0.418
ElecMinimize: Iter:  18  F: -298.176116434394771  |grad|_K:  1.469e-06  alpha:  5.134e-01  linmin: -7.687e-08  t[s]:     37.44
	FillingsUpdate:  mu: -0.101804565  nElectrons: 63.000000
	SubspaceRotationAdjust: set factor to 0.43
ElecMinimize: Iter:  19  F: -298.176130718809986  |grad|_K:  1.308e-06  alpha:  4.835e-01  linmin:  2.698e-06  t[s]:     39.18
	FillingsUpdate:  mu: -0.101238484  nElectrons: 63.000000
	SubspaceRotationAdjust: set factor to 0.431
ElecMinimize: Iter:  20  F: -298.176142244198900  |grad|_K:  1.141e-06  alpha:  4.925e-01  linmin:  2.645e-06  t[s]:     40.92
	FillingsUpdate:  mu: -0.101478649  nElectrons: 63.000000
	SubspaceRotationAdjust: set factor to 0.435
ElecMinimize: Iter:  21  F: -298.176150905760721  |grad|_K:  1.027e-06  alpha:  4.860e-01  linmin:  1.696e-06  t[s]:     42.66
	FillingsUpdate:  mu: -0.101654790  nElectrons: 63.000000
	SubspaceRotationAdjust: set factor to 0.436
ElecMinimize: Iter:  22  F: -298.176158009199753  |grad|_K:  9.320e-07  alpha:  4.922e-01  linmin:  1.114e-06  t[s]:     44.58
	FillingsUpdate:  mu: -0.101180045  nElectrons: 63.000000

Dumping 'X.fillings' ... done
Dumping 'X.wfns' ... done
Dumping 'X.force' ... done
Dumping 'X.eigenvals' ... done
	SubspaceRotationAdjust: set factor to 0.419
ElecMinimize: Iter:  23  F: -298.176164076366661  |grad|_K:  8.694e-07  alpha:  5.105e-01  linmin:  2.208e-06  t[s]:     46.53
	FillingsUpdate:  mu: -0.101603582  nElectrons: 63.000000
	SubspaceRotationAdjust: set factor to 0.415
ElecMinimize: Iter:  24  F: -298.176169511422586  |grad|_K:  8.438e-07  alpha:  5.256e-01  linmin:  2.614e-06  t[s]:     48.34
	FillingsUpdate:  mu: -0.101571360  nElectrons: 63.000000
	SubspaceRotationAdjust: set factor to 0.436
ElecMinimize: Iter:  25  F: -298.176174612458340  |grad|_K:  8.055e-07  alpha:  5.236e-01  linmin:  1.265e-06  t[s]:     50.21
	FillingsUpdate:  mu: -0.101201434  nElectrons: 63.000000
	SubspaceRotationAdjust: set factor to 0.439
ElecMinimize: Iter:  26  F: -298.176179297170677  |grad|_K:  7.792e-07  alpha:  5.276e-01  linmin:  1.378e-06  t[s]:     51.97
	FillingsUpdate:  mu: -0.101623589  nElectrons: 63.000000
	SubspaceRotationAdjust: set factor to 0.426
ElecMinimize: Iter:  27  F: -298.176183583568502  |grad|_K:  7.321e-07  alpha:  5.159e-01  linmin:  2.869e-08  t[s]:     53.73
	FillingsUpdate:  mu: -0.101422071  nElectrons: 63.000000
	SubspaceRotationAdjust: set factor to 0.427
ElecMinimize: Iter:  28  F: -298.176187268308070  |grad|_K:  6.703e-07  alpha:  5.023e-01  linmin:  1.453e-07  t[s]:     55.50
	FillingsUpdate:  mu: -0.101289314  nElectrons: 63.000000
	SubspaceRotationAdjust: set factor to 0.427
ElecMinimize: Iter:  29  F: -298.176190417153634  |grad|_K:  6.285e-07  alpha:  5.121e-01  linmin:  9.758e-08  t[s]:     57.35
	FillingsUpdate:  mu: -0.101583362  nElectrons: 63.000000
	SubspaceRotationAdjust: set factor to 0.416
ElecMinimize: Iter:  30  F: -298.176193178778647  |grad|_K:  5.912e-07  alpha:  5.108e-01  linmin:  9.079e-07  t[s]:     59.11
	FillingsUpdate:  mu: -0.101357555  nElectrons: 63.000000

Dumping 'X.fillings' ... done
Dumping 'X.wfns' ... done
Dumping 'X.force' ... done
Dumping 'X.eigenvals' ... done
	SubspaceRotationAdjust: set factor to 0.418
ElecMinimize: Iter:  31  F: -298.176195628702260  |grad|_K:  5.559e-07  alpha:  5.122e-01  linmin:  1.474e-06  t[s]:     61.04
	FillingsUpdate:  mu: -0.101391590  nElectrons: 63.000000
	SubspaceRotationAdjust: set factor to 0.436
ElecMinimize: Iter:  32  F: -298.176197822171730  |grad|_K:  5.157e-07  alpha:  5.187e-01  linmin:  5.223e-06  t[s]:     62.80
	FillingsUpdate:  mu: -0.101556703  nElectrons: 63.000000
	SubspaceRotationAdjust: set factor to 0.443
ElecMinimize: Iter:  33  F: -298.176199631545785  |grad|_K:  4.719e-07  alpha:  4.971e-01  linmin:  2.433e-06  t[s]:     64.55
	FillingsUpdate:  mu: -0.101345554  nElectrons: 63.000000
	SubspaceRotationAdjust: set factor to 0.434
ElecMinimize: Iter:  34  F: -298.176201083198066  |grad|_K:  4.125e-07  alpha:  4.765e-01  linmin:  2.718e-07  t[s]:     66.65
	FillingsUpdate:  mu: -0.101468932  nElectrons: 63.000000
	SubspaceRotationAdjust: set factor to 0.428
ElecMinimize: Iter:  35  F: -298.176202208558493  |grad|_K:  3.606e-07  alpha:  4.833e-01  linmin:  2.429e-07  t[s]:     68.60
	FillingsUpdate:  mu: -0.101479401  nElectrons: 63.000000
	SubspaceRotationAdjust: set factor to 0.432
ElecMinimize: Iter:  36  F: -298.176203087689146  |grad|_K:  3.298e-07  alpha:  4.939e-01  linmin:  1.117e-06  t[s]:     70.47
	FillingsUpdate:  mu: -0.101362635  nElectrons: 63.000000
	SubspaceRotationAdjust: set factor to 0.428
ElecMinimize: Iter:  37  F: -298.176203820929516  |grad|_K:  3.006e-07  alpha:  4.926e-01  linmin:  4.650e-07  t[s]:     72.36
	FillingsUpdate:  mu: -0.101501529  nElectrons: 63.000000
	SubspaceRotationAdjust: set factor to 0.425
ElecMinimize: Iter:  38  F: -298.176204446892314  |grad|_K:  2.776e-07  alpha:  5.060e-01  linmin:  9.713e-07  t[s]:     74.17
	FillingsUpdate:  mu: -0.101455749  nElectrons: 63.000000

Dumping 'X.fillings' ... done
Dumping 'X.wfns' ... done
Dumping 'X.force' ... done
Dumping 'X.eigenvals' ... done
	SubspaceRotationAdjust: set factor to 0.44
ElecMinimize: Iter:  39  F: -298.176204984620483  |grad|_K:  2.569e-07  alpha:  5.098e-01  linmin: -1.489e-06  t[s]:     76.14
	FillingsUpdate:  mu: -0.101406408  nElectrons: 63.000000
	SubspaceRotationAdjust: set factor to 0.449
ElecMinimize: Iter:  40  F: -298.176205430570292  |grad|_K:  2.352e-07  alpha:  4.938e-01  linmin:  2.227e-06  t[s]:     77.93
	FillingsUpdate:  mu: -0.101513723  nElectrons: 63.000000
	SubspaceRotationAdjust: set factor to 0.436
ElecMinimize: Iter:  41  F: -298.176205812315004  |grad|_K:  2.189e-07  alpha:  5.044e-01  linmin: -1.082e-06  t[s]:     79.75
	FillingsUpdate:  mu: -0.101424669  nElectrons: 63.000000
	SubspaceRotationAdjust: set factor to 0.425
ElecMinimize: Iter:  42  F: -298.176206146120933  |grad|_K:  2.046e-07  alpha:  5.090e-01  linmin:  1.004e-06  t[s]:     81.53
	FillingsUpdate:  mu: -0.101438621  nElectrons: 63.000000
	SubspaceRotationAdjust: set factor to 0.43
ElecMinimize: Iter:  43  F: -298.176206441717000  |grad|_K:  1.947e-07  alpha:  5.163e-01  linmin:  6.659e-07  t[s]:     83.29
	FillingsUpdate:  mu: -0.101486413  nElectrons: 63.000000
	SubspaceRotationAdjust: set factor to 0.435
ElecMinimize: Iter:  44  F: -298.176206711721875  |grad|_K:  1.870e-07  alpha:  5.203e-01  linmin:  2.946e-07  t[s]:     85.12
	FillingsUpdate:  mu: -0.101406536  nElectrons: 63.000000
	SubspaceRotationAdjust: set factor to 0.436
ElecMinimize: Iter:  45  F: -298.176206963850291  |grad|_K:  1.809e-07  alpha:  5.269e-01  linmin:  3.125e-06  t[s]:     86.92
	FillingsUpdate:  mu: -0.101455117  nElectrons: 63.000000
	SubspaceRotationAdjust: set factor to 0.444
ElecMinimize: Iter:  46  F: -298.176207197420865  |grad|_K:  1.713e-07  alpha:  5.215e-01  linmin:  6.693e-07  t[s]:     88.71
	FillingsUpdate:  mu: -0.101459345  nElectrons: 63.000000

Dumping 'X.fillings' ... done
Dumping 'X.wfns' ... done
Dumping 'X.force' ... done
Dumping 'X.eigenvals' ... done
	SubspaceRotationAdjust: set factor to 0.454
ElecMinimize: Iter:  47  F: -298.176207399483701  |grad|_K:  1.561e-07  alpha:  5.031e-01  linmin: -2.490e-07  t[s]:     90.75
	FillingsUpdate:  mu: -0.101409671  nElectrons: 63.000000
	SubspaceRotationAdjust: set factor to 0.448
ElecMinimize: Iter:  48  F: -298.176207563257663  |grad|_K:  1.422e-07  alpha:  4.910e-01  linmin:  2.162e-06  t[s]:     92.51
	FillingsUpdate:  mu: -0.101467411  nElectrons: 63.000000
	SubspaceRotationAdjust: set factor to 0.434
ElecMinimize: Iter:  49  F: -298.176207698919598  |grad|_K:  1.291e-07  alpha:  4.909e-01  linmin: -2.836e-07  t[s]:     94.28
	FillingsUpdate:  mu: -0.101430613  nElectrons: 63.000000
	SubspaceRotationAdjust: set factor to 0.434
ElecMinimize: Iter:  50  F: -298.176207815139946  |grad|_K:  1.205e-07  alpha:  5.092e-01  linmin: -5.777e-06  t[s]:     96.04
	FillingsUpdate:  mu: -0.101423061  nElectrons: 63.000000
	SubspaceRotationAdjust: set factor to 0.446
ElecMinimize: Iter:  51  F: -298.176207917844181  |grad|_K:  1.151e-07  alpha:  5.166e-01  linmin:  7.609e-06  t[s]:     97.79
	FillingsUpdate:  mu: -0.101463938  nElectrons: 63.000000
	SubspaceRotationAdjust: set factor to 0.449
ElecMinimize: Iter:  52  F: -298.176208011063352  |grad|_K:  1.094e-07  alpha:  5.145e-01  linmin:  1.213e-05  t[s]:     99.57
	FillingsUpdate:  mu: -0.101420109  nElectrons: 63.000000
	SubspaceRotationAdjust: set factor to 0.446
ElecMinimize: Iter:  53  F: -298.176208096100822  |grad|_K:  1.045e-07  alpha:  5.201e-01  linmin: -7.009e-06  t[s]:    101.32
ElecMinimize: Converged (|Delta F|<1.000000e-07 for 2 iters).
Setting wave functions to eigenvectors of Hamiltonian

# Ionic positions in lattice coordinates:
ion Na   0.000000000000000   0.000000000000000   0.327870000000000 1
ion Na   0.500000000000000   0.500000000000000   0.385250000000000 1
ion Na   0.000000000000000   0.000000000000000   0.442620000000000 1
ion Na   0.500000000000000   0.500000000000000   0.500000000000000 1
ion Na   0.000000000000000   0.000000000000000   0.557380000000000 1
ion Na   0.500000000000000   0.500000000000000   0.614750000000000 1
ion Na   0.000000000000000   0.000000000000000   0.672130000000000 1

# Forces in Lattice coordinates:
force Na   0.000000000000000   0.000000000000000  -0.021031874528547 1
force Na   0.000000000000000  -0.000000000000000   0.019298580898896 1
force Na   0.000000000000000  -0.000000000000000   0.001394147840504 1
force Na   0.000000000000000  -0.000000000000000   0.000000000000000 1
force Na   0.000000000000000   0.000000000000000  -0.001394147840732 1
force Na   0.000000000000000   0.000000000000000  -0.019298580898442 1
force Na   0.000000000000000  -0.000000000000000   0.021031874528547 1

# Energy components:
   Eewald =    -1942.9223310030267839
       EH =    -1704.3900188440381953
     Eloc =     3331.6861769380070655
      Enl =      -90.4811358603389237
   Epulay =        0.0000004714229394
      Exc =      -43.8104759284104190
       KE =      151.7701197843811087
-------------------------------------
     Etot =     -298.1476644420031903
       TS =        0.0285436540976174
-------------------------------------
        F =     -298.1762080961008223

IonicMinimize: Iter:   0  F: -298.176208096100822  |grad|_K:  1.275e-04  t[s]:    101.57
IonicMinimize: None of the convergence criteria satisfied after 0 iterations.

#--- Lowdin population analysis ---
# oxidation-state Na +0.076 +0.050 +0.047 +0.058 +0.047 +0.050 +0.076


Dumping 'X.fillings' ... done
Dumping 'X.wfns' ... done
Dumping 'X.ionpos' ... done
Dumping 'X.lattice' ... done
Dumping 'X.n' ... done
Dumping 'X.eigenvals' ... done
Dumping 'X.eigStats' ... 
	eMin: -2.063374 at state 0 ( [ +0.000000 +0.000000 +0.000000 ] spin 0 )
	HOMO: -0.102128 at state 9 ( [ +0.090909 +0.363636 +0.000000 ] spin 0 )
	mu  : -0.101420
	LUMO: -0.099937 at state 17 ( [ +0.272727 +0.454545 +0.000000 ] spin 0 )
	eMax: -0.020506 at state 11 ( [ +0.181818 +0.181818 +0.000000 ] spin 0 )
	HOMO-LUMO gap: +0.002191
	Optical gap  : +0.004470 at state 14 ( [ +0.181818 +0.454545 +0.000000 ] spin 0 )
Dumping 'X.dos' ... done.
End date and time: Wed Nov  8 23:51:35 2023  (Duration: 0-0:01:41.99)
Done!

*************** JDFTx 1.7.0  ***************

Start date and time: Wed Nov  8 23:51:38 2023
Executable jdftx with command-line: -m -i X.in -o X.out
Running on hosts (process indices):  ac0015 (0-20)
Divided in process groups (process indices):  0 (0)  1 (1)  2 (2)  3 (3)  4 (4)  5 (5)  6 (6)  7 (7)  8 (8)  9 (9)  10 (10)  11 (11)  12 (12)  13 (13)  14 (14)  15 (15)  16 (16)  17 (17)  18 (18)  19 (19)  20 (20)
Resource initialization completed at t[s]:      0.03
Run totals: 21 processes, 21 threads, 0 GPUs


Input parsed successfully to the following command list (including defaults):

basis kpoint-dependent
cache-projectors no
coords-type Lattice
core-overlap-check vector
coulomb-interaction Slab 001
coulomb-truncation-embed 0 0 0.5
davidson-band-ratio 1.1
density-of-states Etol 1.000000e-06 Esigma 0.000000e+00 \
		Complete \
	Total \
		Occupied \
	Total
dump End State IonicPositions Lattice ElecDensity CoreDensity EigStats DOS
dump Electronic State Forces
dump Ionic State IonicPositions Forces Lattice DOS
dump-interval Electronic 8
dump-interval Ionic 4
dump-name X.$var
elec-cutoff 30
elec-eigen-algo Davidson
elec-ex-corr gga-PBE
elec-smearing Fermi 0.0095
electronic-minimize  \
	dirUpdateScheme      FletcherReeves \
	linminMethod         DirUpdateRecommended \
	nIterations          2000 \
	history              15 \
	knormThreshold       0 \
	energyDiffThreshold  1e-07 \
	nEnergyDiff          2 \
	alphaTstart          1 \
	alphaTmin            1e-10 \
	updateTestStepSize   yes \
	alphaTreduceFactor   0.1 \
	alphaTincreaseFactor 3 \
	nAlphaAdjustMax      3 \
	wolfeEnergy          0.0001 \
	wolfeGradient        0.9 \
	fdTest               no
exchange-regularization WignerSeitzTruncated
fluid None
fluid-ex-corr (null) lda-PZ
fluid-gummel-loop 10 1.000000e-05
fluid-minimize  \
	dirUpdateScheme      PolakRibiere \
	linminMethod         DirUpdateRecommended \
	nIterations          100 \
	history              15 \
	knormThreshold       0 \
	energyDiffThreshold  0 \
	nEnergyDiff          2 \
	alphaTstart          1 \
	alphaTmin            1e-10 \
	updateTestStepSize   yes \
	alphaTreduceFactor   0.1 \
	alphaTincreaseFactor 3 \
	nAlphaAdjustMax      3 \
	wolfeEnergy          0.0001 \
	wolfeGradient        0.9 \
	fdTest               no
fluid-solvent H2O 55.338 ScalarEOS \
	epsBulk 78.4 \
	pMol 0.92466 \
	epsInf 1.77 \
	Pvap 1.06736e-10 \
	sigmaBulk 4.62e-05 \
	Rvdw 2.61727 \
	Res 1.42 \
	tauNuc 343133 \
	poleEl 15 7 1
forces-output-coords Positions
ion Na   0.000000000000000   0.000000000000000   0.327870000000000 1
ion Na   0.500000000000000   0.500000000000000   0.385250000000000 1
ion Na   0.000000000000000   0.000000000000000   0.442620000000000 1
ion Na   0.500000000000000   0.500000000000000   0.500000000000000 1
ion Na   0.000000000000000   0.000000000000000   0.557380000000000 1
ion Na   0.500000000000000   0.500000000000000   0.614750000000000 1
ion Na   0.000000000000000   0.000000000000000   0.672130000000000 1
ion-species SG15/$ID_ONCV_PBE.upf
ion-width 0
ionic-minimize  \
	dirUpdateScheme      L-BFGS \
	linminMethod         DirUpdateRecommended \
	nIterations          0 \
	history              15 \
	knormThreshold       0.0001 \
	energyDiffThreshold  1e-06 \
	nEnergyDiff          2 \
	alphaTstart          1 \
	alphaTmin            1e-10 \
	updateTestStepSize   yes \
	alphaTreduceFactor   0.1 \
	alphaTincreaseFactor 3 \
	nAlphaAdjustMax      3 \
	wolfeEnergy          0.0001 \
	wolfeGradient        0.9 \
	fdTest               no
kpoint   0.000000000000   0.000000000000   0.000000000000  1.00000000000000
kpoint-folding 11 11 1 
latt-move-scale 1 1 1
latt-scale 1 1 1 
lattice  \
	   7.936714821600003   -0.000000000000000   -0.000000000000000  \
	   0.000000000000000    7.936714821600003   -0.000000000000000  \
	   0.000000000000000    0.000000000000000   69.163740054000002 
lattice-minimize  \
	dirUpdateScheme      L-BFGS \
	linminMethod         DirUpdateRecommended \
	nIterations          0 \
	history              15 \
	knormThreshold       0 \
	energyDiffThreshold  1e-06 \
	nEnergyDiff          2 \
	alphaTstart          1 \
	alphaTmin            1e-10 \
	updateTestStepSize   yes \
	alphaTreduceFactor   0.1 \
	alphaTincreaseFactor 3 \
	nAlphaAdjustMax      3 \
	wolfeEnergy          0.0001 \
	wolfeGradient        0.9 \
	fdTest               no
lcao-params -1 1e-06 0.0095
pcm-variant GLSSA13
spintype no-spin
subspace-rotation-factor 1 yes
symmetries automatic
symmetry-threshold 0.0001
wavefunction read X.wfns 35 20.000000



---------- Setting up symmetries ----------

Found 16 point-group symmetries of the bravais lattice
Found 16 space-group symmetries with basis
Applied RMS atom displacement 0 bohrs to make symmetries exact.

---------- Initializing the Grid ----------
R = 
[      7.93671            0            0  ]
[            0      7.93671            0  ]
[            0            0      69.1637  ]
unit cell volume = 4356.72
G =
[   0.791661          0          0  ]
[         -0   0.791661          0  ]
[          0         -0  0.0908451  ]
Minimum fftbox size, Smin = [  40  40  344  ]
Chosen fftbox size, S = [  40  40  350  ]

---------- Exchange Correlation functional ----------
Initalized PBE GGA exchange.
Initalized PBE GGA correlation.

---------- Setting up pseudopotentials ----------
Width of ionic core gaussian charges (only for fluid interactions / plotting) set to 0

Reading pseudopotential file '/net/software/testing/software/jdftx/1.7.0-foss-2021b-mkl/share/jdftx/pseudopotentials/SG15/Na_ONCV_PBE.upf':
  'Na' pseudopotential, 'PBE' functional
  Generated using ONCVPSP code by D. R. Hamann
  Author: Martin Schlipf and Francois Gygi  Date: 150915.
  9 valence electrons, 3 orbitals, 4 projectors, 1992 radial grid points, with lMax = 1
  Transforming local potential to a uniform radial grid of dG=0.02 with 1379 points.
  Transforming nonlocal projectors to a uniform radial grid of dG=0.02 with 528 points.
    2S    l: 0   occupation:  2.0   eigenvalue: -2.085640
    2P    l: 1   occupation:  6.0   eigenvalue: -1.053708
    3S    l: 0   occupation:  1.0   eigenvalue: -0.100838
  Transforming atomic orbitals to a uniform radial grid of dG=0.02 with 528 points.
  Core radius for overlap checks: 2.01 bohrs.
  Reading pulay file /net/software/testing/software/jdftx/1.7.0-foss-2021b-mkl/share/jdftx/pseudopotentials/SG15/Na_ONCV_PBE.pulay ... using dE_dnG = -3.261361e-04 computed for Ecut = 30.

Initialized 1 species with 7 total atoms.

Folded 1 k-points by 11x11x1 to 121 k-points.

---------- Setting up k-points, bands, fillings ----------
Reduced to 21 k-points under symmetry. 
Computing the number of bands and number of electrons
Calculating initial fillings.
nElectrons:  63.000000   nBands: 35   nStates: 21

----- Setting up reduced wavefunction bases (one per k-point) -----
average nbasis = 34195.628 , ideal nbasis = 34192.897

----- Initializing Supercell corresponding to k-point mesh -----
Lattice vector linear combinations in supercell:
[  11   0   0  ]
[   0  11   0  ]
[   0   0   1  ]
Supercell lattice vectors:
[  87.3039  0  0  ]
[  0  87.3039  0  ]
[  0  0  69.1637  ]

---------- Setting up coulomb interaction ----------
Setting up double-sized grid for truncated Coulomb potentials:
R = 
[      7.93671            0            0  ]
[            0      7.93671            0  ]
[            0            0      138.327  ]
unit cell volume = 8713.45
G =
[   0.791661          0          0  ]
[         -0   0.791661          0  ]
[          0         -0  0.0454225  ]
Chosen fftbox size, S = [  40  40  700  ]
Integer grid location selected as the embedding center:
   Grid: [  0  0  175  ]
   Lattice: [  0  0  0.5  ]
   Cartesian: [  0  0  34.5819  ]
Constructing Wigner-Seitz cell: 6 faces (6 quadrilaterals, 0 hexagons)
Range-separation parameter for embedded mesh potentials due to point charges: 0.561954 bohrs.
Initialized slab truncation along lattice direction 001

---------- Setting up 2D ewald sum ----------
Optimum gaussian width for ewald sums = 4.734710 bohr.
Real space sums over 225 unit cells with max indices [  7  7  0  ]
Reciprocal space sums over 81 terms with max indices [  4  4  0  ]

---------- Allocating electronic variables ----------
Initializing wave functions:  reading from 'X.wfns'


---- Citations for features of the code used in this run ----

   Software package:
      R. Sundararaman, K. Letchworth-Weaver, K.A. Schwarz, D. Gunceler, Y. Ozhabes and T.A. Arias, 'JDFTx: software for joint density-functional theory', SoftwareX 6, 278 (2017)

   gga-PBE exchange-correlation functional:
      J.P. Perdew, K. Burke and M. Ernzerhof, Phys. Rev. Lett. 77, 3865 (1996)

   Pseudopotentials:
      M Schlipf and F Gygi, Comput. Phys. Commun. 196, 36 (2015)

   Truncated Coulomb potentials:
      R. Sundararaman and T.A. Arias, Phys. Rev. B 87, 165122 (2013)

   Total energy minimization with Auxiliary Hamiltonian:
      C. Freysoldt, S. Boeck, and J. Neugebauer, Phys. Rev. B 79, 241103(R) (2009)

   Linear-tetrahedron sampling for density of states:
      G. Lehmann and M. Taut, Phys. status solidi (b) 54, 469 (1972)

This list may not be complete. Please suggest additional citations or
report any other bugs at https://github.com/shankar1729/jdftx/issues

Initialization completed successfully at t[s]:      0.79


Setting the auxilliary hamiltonian equal to the subspace hamiltonian.

-------- Electronic minimization -----------
	FillingsUpdate:  mu: -0.117955228  nElectrons: 63.000000
ElecMinimize: Iter:   0  F: -298.170771788973582  |grad|_K:  5.240e-05  alpha:  1.000e+00
	FillingsUpdate:  mu: -0.100247201  nElectrons: 63.000000
	SubspaceRotationAdjust: set factor to 0.548
ElecMinimize: Iter:   1  F: -298.185432710771238  |grad|_K:  1.332e-05  alpha:  2.100e-01  linmin: -3.585e-04  t[s]:      9.03
	FillingsUpdate:  mu: -0.124128913  nElectrons: 63.000000
	SubspaceRotationAdjust: set factor to 0.312
ElecMinimize: Iter:   2  F: -298.186796228494927  |grad|_K:  1.450e-05  alpha:  3.122e-01  linmin:  2.191e-04  t[s]:     12.67
	FillingsUpdate:  mu: -0.103665127  nElectrons: 63.000000
	SubspaceRotationAdjust: set factor to 0.496
ElecMinimize: Iter:   3  F: -298.188763653895819  |grad|_K:  7.677e-06  alpha:  4.354e-01  linmin:  2.568e-04  t[s]:     16.23
	FillingsUpdate:  mu: -0.096534396  nElectrons: 63.000000
	SubspaceRotationAdjust: set factor to 0.475
ElecMinimize: Iter:   4  F: -298.188981776727644  |grad|_K:  3.548e-06  alpha:  1.762e-01  linmin: -3.529e-05  t[s]:     19.79
	FillingsUpdate:  mu: -0.095344906  nElectrons: 63.000000
	SubspaceRotationAdjust: set factor to 0.32
ElecMinimize: Iter:   5  F: -298.189046507281716  |grad|_K:  2.652e-06  alpha:  2.029e-01  linmin:  3.229e-06  t[s]:     23.42
	FillingsUpdate:  mu: -0.099297926  nElectrons: 63.000000
	SubspaceRotationAdjust: set factor to 0.499
ElecMinimize: Iter:   6  F: -298.189099483150869  |grad|_K:  2.300e-06  alpha:  3.000e-01  linmin:  6.790e-06  t[s]:     27.03
	FillingsUpdate:  mu: -0.102642446  nElectrons: 63.000000

Dumping 'X.fillings' ... done
Dumping 'X.wfns' ... done
Dumping 'X.force' ... done
Dumping 'X.eigenvals' ... done
	SubspaceRotationAdjust: set factor to 0.574
ElecMinimize: Iter:   7  F: -298.189138101308686  |grad|_K:  1.948e-06  alpha:  2.913e-01  linmin:  3.506e-06  t[s]:     30.86
	FillingsUpdate:  mu: -0.102755818  nElectrons: 63.000000
	SubspaceRotationAdjust: set factor to 0.653
ElecMinimize: Iter:   8  F: -298.189164819158634  |grad|_K:  1.768e-06  alpha:  2.806e-01  linmin: -1.484e-06  t[s]:     34.49
	FillingsUpdate:  mu: -0.102422109  nElectrons: 63.000000
	SubspaceRotationAdjust: set factor to 0.839
ElecMinimize: Iter:   9  F: -298.189187417846199  |grad|_K:  1.569e-06  alpha:  2.873e-01  linmin: -3.986e-06  t[s]:     37.96
	FillingsUpdate:  mu: -0.102922608  nElectrons: 63.000000
	SubspaceRotationAdjust: set factor to 1
ElecMinimize: Iter:  10  F: -298.189201108855912  |grad|_K:  1.200e-06  alpha:  2.208e-01  linmin: -1.643e-06  t[s]:     41.39
	FillingsUpdate:  mu: -0.101990531  nElectrons: 63.000000
	SubspaceRotationAdjust: set factor to 1.19
ElecMinimize: Iter:  11  F: -298.189208426708888  |grad|_K:  7.648e-07  alpha:  2.018e-01  linmin: -6.170e-06  t[s]:     44.98
	FillingsUpdate:  mu: -0.101294790  nElectrons: 63.000000
	SubspaceRotationAdjust: set factor to 1.13
ElecMinimize: Iter:  12  F: -298.189211289936623  |grad|_K:  5.929e-07  alpha:  1.944e-01  linmin: -3.261e-06  t[s]:     48.44
	FillingsUpdate:  mu: -0.101653221  nElectrons: 63.000000
	SubspaceRotationAdjust: set factor to 1.09
ElecMinimize: Iter:  13  F: -298.189212726889480  |grad|_K:  4.749e-07  alpha:  1.624e-01  linmin:  1.425e-08  t[s]:     51.99
	FillingsUpdate:  mu: -0.101380448  nElectrons: 63.000000
	SubspaceRotationAdjust: set factor to 1.47
ElecMinimize: Iter:  14  F: -298.189213808768955  |grad|_K:  3.380e-07  alpha:  1.907e-01  linmin: -1.455e-06  t[s]:     55.76
	FillingsUpdate:  mu: -0.101319545  nElectrons: 63.000000

Dumping 'X.fillings' ... done
Dumping 'X.wfns' ... done
Dumping 'X.force' ... done
Dumping 'X.eigenvals' ... done
	SubspaceRotationAdjust: set factor to 1.71
ElecMinimize: Iter:  15  F: -298.189214440417970  |grad|_K:  2.677e-07  alpha:  2.196e-01  linmin:  3.972e-07  t[s]:     59.51
	FillingsUpdate:  mu: -0.101539580  nElectrons: 63.000000
	SubspaceRotationAdjust: set factor to 1.5
ElecMinimize: Iter:  16  F: -298.189214729937703  |grad|_K:  2.614e-07  alpha:  1.607e-01  linmin:  6.061e-08  t[s]:     63.01
	FillingsUpdate:  mu: -0.101324452  nElectrons: 63.000000
	SubspaceRotationAdjust: set factor to 1.39
ElecMinimize: Iter:  17  F: -298.189214922039355  |grad|_K:  1.806e-07  alpha:  1.118e-01  linmin:  1.995e-07  t[s]:     66.64
	FillingsUpdate:  mu: -0.101369909  nElectrons: 63.000000
	SubspaceRotationAdjust: set factor to 1.67
ElecMinimize: Iter:  18  F: -298.189215078319648  |grad|_K:  1.280e-07  alpha:  1.905e-01  linmin:  6.800e-06  t[s]:     70.15
	FillingsUpdate:  mu: -0.101442805  nElectrons: 63.000000
	SubspaceRotationAdjust: set factor to 1.82
ElecMinimize: Iter:  19  F: -298.189215166184795  |grad|_K:  1.176e-07  alpha:  2.140e-01  linmin: -6.550e-06  t[s]:     73.73
	FillingsUpdate:  mu: -0.101353984  nElectrons: 63.000000
	SubspaceRotationAdjust: set factor to 1.66
ElecMinimize: Iter:  20  F: -298.189215213151783  |grad|_K:  1.213e-07  alpha:  1.347e-01  linmin: -1.812e-06  t[s]:     77.20
ElecMinimize: Converged (|Delta F|<1.000000e-07 for 2 iters).
Setting wave functions to eigenvectors of Hamiltonian

# Ionic positions in lattice coordinates:
ion Na   0.000000000000000   0.000000000000000   0.327870000000000 1
ion Na   0.500000000000000   0.500000000000000   0.385250000000000 1
ion Na   0.000000000000000   0.000000000000000   0.442620000000000 1
ion Na   0.500000000000000   0.500000000000000   0.500000000000000 1
ion Na   0.000000000000000   0.000000000000000   0.557380000000000 1
ion Na   0.500000000000000   0.500000000000000   0.614750000000000 1
ion Na   0.000000000000000   0.000000000000000   0.672130000000000 1

# Forces in Lattice coordinates:
force Na   0.000000000000000   0.000000000000000  -0.002367793187159 1
force Na  -0.000000000000000  -0.000000000000000   0.051372770728402 1
force Na   0.000000000000000  -0.000000000000000   0.025581585230990 1
force Na  -0.000000000000000  -0.000000000000000   0.000000000000000 1
force Na   0.000000000000000   0.000000000000000  -0.025581585230990 1
force Na  -0.000000000000000  -0.000000000000000  -0.051372770728402 1
force Na   0.000000000000000  -0.000000000000000   0.002367793187614 1

# Energy components:
   Eewald =    -1942.9223310030267839
       EH =    -1704.3204818828976386
     Eloc =     3331.5833307189523111
      Enl =      -90.5107811212601518
   Epulay =        0.0000014309881780
      Exc =      -43.8189005441088000
       KE =      151.8285158647059916
-------------------------------------
     Etot =     -298.1606465366471639
       TS =        0.0285686765046259
-------------------------------------
        F =     -298.1892152131517832

IonicMinimize: Iter:   0  F: -298.189215213151783  |grad|_K:  2.563e-04  t[s]:     77.66
IonicMinimize: None of the convergence criteria satisfied after 0 iterations.

#--- Lowdin population analysis ---
# oxidation-state Na +0.075 +0.050 +0.047 +0.059 +0.047 +0.050 +0.075


Dumping 'X.fillings' ... done
Dumping 'X.wfns' ... done
Dumping 'X.ionpos' ... done
Dumping 'X.lattice' ... done
Dumping 'X.n' ... done
Dumping 'X.eigenvals' ... done
Dumping 'X.eigStats' ... 
	eMin: -2.062494 at state 1 ( [ +0.000000 +0.090909 +0.000000 ] spin 0 )
	HOMO: -0.102063 at state 9 ( [ +0.090909 +0.363636 +0.000000 ] spin 0 )
	mu  : -0.101354
	LUMO: -0.099841 at state 17 ( [ +0.272727 +0.454545 +0.000000 ] spin 0 )
	eMax: -0.020471 at state 15 ( [ +0.272727 +0.272727 +0.000000 ] spin 0 )
	HOMO-LUMO gap: +0.002222
	Optical gap  : +0.004473 at state 14 ( [ +0.181818 +0.454545 +0.000000 ] spin 0 )
Dumping 'X.dos' ... done.
End date and time: Wed Nov  8 23:52:56 2023  (Duration: 0-0:01:18.25)
Done!

*************** JDFTx 1.7.0  ***************

Start date and time: Wed Nov  8 23:52:59 2023
Executable jdftx with command-line: -m -i X.in -o X.out
Running on hosts (process indices):  ac0015 (0-20)
Divided in process groups (process indices):  0 (0)  1 (1)  2 (2)  3 (3)  4 (4)  5 (5)  6 (6)  7 (7)  8 (8)  9 (9)  10 (10)  11 (11)  12 (12)  13 (13)  14 (14)  15 (15)  16 (16)  17 (17)  18 (18)  19 (19)  20 (20)
Resource initialization completed at t[s]:      0.02
Run totals: 21 processes, 21 threads, 0 GPUs


Input parsed successfully to the following command list (including defaults):

basis kpoint-dependent
cache-projectors no
coords-type Lattice
core-overlap-check vector
coulomb-interaction Slab 001
coulomb-truncation-embed 0 0 0.5
davidson-band-ratio 1.1
density-of-states Etol 1.000000e-06 Esigma 0.000000e+00 \
		Complete \
	Total \
		Occupied \
	Total
dump End State IonicPositions Lattice ElecDensity CoreDensity EigStats DOS
dump Electronic State Forces
dump Ionic State IonicPositions Forces Lattice DOS
dump-interval Electronic 8
dump-interval Ionic 4
dump-name X.$var
elec-cutoff 40
elec-eigen-algo Davidson
elec-ex-corr gga-PBE
elec-smearing Fermi 0.0095
electronic-minimize  \
	dirUpdateScheme      FletcherReeves \
	linminMethod         DirUpdateRecommended \
	nIterations          2000 \
	history              15 \
	knormThreshold       0 \
	energyDiffThreshold  1e-07 \
	nEnergyDiff          2 \
	alphaTstart          1 \
	alphaTmin            1e-10 \
	updateTestStepSize   yes \
	alphaTreduceFactor   0.1 \
	alphaTincreaseFactor 3 \
	nAlphaAdjustMax      3 \
	wolfeEnergy          0.0001 \
	wolfeGradient        0.9 \
	fdTest               no
exchange-regularization WignerSeitzTruncated
fluid None
fluid-ex-corr (null) lda-PZ
fluid-gummel-loop 10 1.000000e-05
fluid-minimize  \
	dirUpdateScheme      PolakRibiere \
	linminMethod         DirUpdateRecommended \
	nIterations          100 \
	history              15 \
	knormThreshold       0 \
	energyDiffThreshold  0 \
	nEnergyDiff          2 \
	alphaTstart          1 \
	alphaTmin            1e-10 \
	updateTestStepSize   yes \
	alphaTreduceFactor   0.1 \
	alphaTincreaseFactor 3 \
	nAlphaAdjustMax      3 \
	wolfeEnergy          0.0001 \
	wolfeGradient        0.9 \
	fdTest               no
fluid-solvent H2O 55.338 ScalarEOS \
	epsBulk 78.4 \
	pMol 0.92466 \
	epsInf 1.77 \
	Pvap 1.06736e-10 \
	sigmaBulk 4.62e-05 \
	Rvdw 2.61727 \
	Res 1.42 \
	tauNuc 343133 \
	poleEl 15 7 1
forces-output-coords Positions
ion Na   0.000000000000000   0.000000000000000   0.327870000000000 1
ion Na   0.500000000000000   0.500000000000000   0.385250000000000 1
ion Na   0.000000000000000   0.000000000000000   0.442620000000000 1
ion Na   0.500000000000000   0.500000000000000   0.500000000000000 1
ion Na   0.000000000000000   0.000000000000000   0.557380000000000 1
ion Na   0.500000000000000   0.500000000000000   0.614750000000000 1
ion Na   0.000000000000000   0.000000000000000   0.672130000000000 1
ion-species SG15/$ID_ONCV_PBE.upf
ion-width 0
ionic-minimize  \
	dirUpdateScheme      L-BFGS \
	linminMethod         DirUpdateRecommended \
	nIterations          0 \
	history              15 \
	knormThreshold       0.0001 \
	energyDiffThreshold  1e-06 \
	nEnergyDiff          2 \
	alphaTstart          1 \
	alphaTmin            1e-10 \
	updateTestStepSize   yes \
	alphaTreduceFactor   0.1 \
	alphaTincreaseFactor 3 \
	nAlphaAdjustMax      3 \
	wolfeEnergy          0.0001 \
	wolfeGradient        0.9 \
	fdTest               no
kpoint   0.000000000000   0.000000000000   0.000000000000  1.00000000000000
kpoint-folding 11 11 1 
latt-move-scale 1 1 1
latt-scale 1 1 1 
lattice  \
	   7.936714821600003   -0.000000000000000   -0.000000000000000  \
	   0.000000000000000    7.936714821600003   -0.000000000000000  \
	   0.000000000000000    0.000000000000000   69.163740054000002 
lattice-minimize  \
	dirUpdateScheme      L-BFGS \
	linminMethod         DirUpdateRecommended \
	nIterations          0 \
	history              15 \
	knormThreshold       0 \
	energyDiffThreshold  1e-06 \
	nEnergyDiff          2 \
	alphaTstart          1 \
	alphaTmin            1e-10 \
	updateTestStepSize   yes \
	alphaTreduceFactor   0.1 \
	alphaTincreaseFactor 3 \
	nAlphaAdjustMax      3 \
	wolfeEnergy          0.0001 \
	wolfeGradient        0.9 \
	fdTest               no
lcao-params -1 1e-06 0.0095
pcm-variant GLSSA13
spintype no-spin
subspace-rotation-factor 1 yes
symmetries automatic
symmetry-threshold 0.0001
wavefunction read X.wfns 35 30.000000



---------- Setting up symmetries ----------

Found 16 point-group symmetries of the bravais lattice
Found 16 space-group symmetries with basis
Applied RMS atom displacement 0 bohrs to make symmetries exact.

---------- Initializing the Grid ----------
R = 
[      7.93671            0            0  ]
[            0      7.93671            0  ]
[            0            0      69.1637  ]
unit cell volume = 4356.72
G =
[   0.791661          0          0  ]
[         -0   0.791661          0  ]
[          0         -0  0.0908451  ]
Minimum fftbox size, Smin = [  48  48  396  ]
Chosen fftbox size, S = [  48  48  400  ]

---------- Exchange Correlation functional ----------
Initalized PBE GGA exchange.
Initalized PBE GGA correlation.

---------- Setting up pseudopotentials ----------
Width of ionic core gaussian charges (only for fluid interactions / plotting) set to 0

Reading pseudopotential file '/net/software/testing/software/jdftx/1.7.0-foss-2021b-mkl/share/jdftx/pseudopotentials/SG15/Na_ONCV_PBE.upf':
  'Na' pseudopotential, 'PBE' functional
  Generated using ONCVPSP code by D. R. Hamann
  Author: Martin Schlipf and Francois Gygi  Date: 150915.
  9 valence electrons, 3 orbitals, 4 projectors, 1992 radial grid points, with lMax = 1
  Transforming local potential to a uniform radial grid of dG=0.02 with 1627 points.
  Transforming nonlocal projectors to a uniform radial grid of dG=0.02 with 609 points.
    2S    l: 0   occupation:  2.0   eigenvalue: -2.085640
    2P    l: 1   occupation:  6.0   eigenvalue: -1.053708
    3S    l: 0   occupation:  1.0   eigenvalue: -0.100838
  Transforming atomic orbitals to a uniform radial grid of dG=0.02 with 609 points.
  Core radius for overlap checks: 2.01 bohrs.
  Reading pulay file /net/software/testing/software/jdftx/1.7.0-foss-2021b-mkl/share/jdftx/pseudopotentials/SG15/Na_ONCV_PBE.pulay ... using dE_dnG = -6.648380e-05 computed for Ecut = 40.

Initialized 1 species with 7 total atoms.

Folded 1 k-points by 11x11x1 to 121 k-points.

---------- Setting up k-points, bands, fillings ----------
Reduced to 21 k-points under symmetry. 
Computing the number of bands and number of electrons
Calculating initial fillings.
nElectrons:  63.000000   nBands: 35   nStates: 21

----- Setting up reduced wavefunction bases (one per k-point) -----
average nbasis = 52647.083 , ideal nbasis = 52643.409

----- Initializing Supercell corresponding to k-point mesh -----
Lattice vector linear combinations in supercell:
[  11   0   0  ]
[   0  11   0  ]
[   0   0   1  ]
Supercell lattice vectors:
[  87.3039  0  0  ]
[  0  87.3039  0  ]
[  0  0  69.1637  ]

---------- Setting up coulomb interaction ----------
Setting up double-sized grid for truncated Coulomb potentials:
R = 
[      7.93671            0            0  ]
[            0      7.93671            0  ]
[            0            0      138.327  ]
unit cell volume = 8713.45
G =
[   0.791661          0          0  ]
[         -0   0.791661          0  ]
[          0         -0  0.0454225  ]
Chosen fftbox size, S = [  48  48  800  ]
Integer grid location selected as the embedding center:
   Grid: [  0  0  200  ]
   Lattice: [  0  0  0.5  ]
   Cartesian: [  0  0  34.5819  ]
Constructing Wigner-Seitz cell: 6 faces (6 quadrilaterals, 0 hexagons)
Range-separation parameter for embedded mesh potentials due to point charges: 0.524589 bohrs.
Initialized slab truncation along lattice direction 001

---------- Setting up 2D ewald sum ----------
Optimum gaussian width for ewald sums = 4.734710 bohr.
Real space sums over 225 unit cells with max indices [  7  7  0  ]
Reciprocal space sums over 81 terms with max indices [  4  4  0  ]

---------- Allocating electronic variables ----------
Initializing wave functions:  reading from 'X.wfns'


---- Citations for features of the code used in this run ----

   Software package:
      R. Sundararaman, K. Letchworth-Weaver, K.A. Schwarz, D. Gunceler, Y. Ozhabes and T.A. Arias, 'JDFTx: software for joint density-functional theory', SoftwareX 6, 278 (2017)

   gga-PBE exchange-correlation functional:
      J.P. Perdew, K. Burke and M. Ernzerhof, Phys. Rev. Lett. 77, 3865 (1996)

   Pseudopotentials:
      M Schlipf and F Gygi, Comput. Phys. Commun. 196, 36 (2015)

   Truncated Coulomb potentials:
      R. Sundararaman and T.A. Arias, Phys. Rev. B 87, 165122 (2013)

   Total energy minimization with Auxiliary Hamiltonian:
      C. Freysoldt, S. Boeck, and J. Neugebauer, Phys. Rev. B 79, 241103(R) (2009)

   Linear-tetrahedron sampling for density of states:
      G. Lehmann and M. Taut, Phys. status solidi (b) 54, 469 (1972)

This list may not be complete. Please suggest additional citations or
report any other bugs at https://github.com/shankar1729/jdftx/issues

Initialization completed successfully at t[s]:      1.22


Setting the auxilliary hamiltonian equal to the subspace hamiltonian.

-------- Electronic minimization -----------
	FillingsUpdate:  mu: -0.119247148  nElectrons: 63.000000
ElecMinimize: Iter:   0  F: -298.183868400412109  |grad|_K:  2.816e-05  alpha:  1.000e+00
	FillingsUpdate:  mu: -0.097499143  nElectrons: 63.000000
	SubspaceRotationAdjust: set factor to 0.53
ElecMinimize: Iter:   1  F: -298.190757920294345  |grad|_K:  1.135e-05  alpha:  2.177e-01  linmin: -4.417e-04  t[s]:     14.77
	FillingsUpdate:  mu: -0.120735895  nElectrons: 63.000000
	SubspaceRotationAdjust: set factor to 0.344
ElecMinimize: Iter:   2  F: -298.191997440599721  |grad|_K:  1.053e-05  alpha:  2.442e-01  linmin:  8.354e-05  t[s]:     21.18
	FillingsUpdate:  mu: -0.105668502  nElectrons: 63.000000
	SubspaceRotationAdjust: set factor to 0.329
ElecMinimize: Iter:   3  F: -298.193932822738191  |grad|_K:  6.496e-06  alpha:  5.715e-01  linmin:  3.875e-04  t[s]:     27.14
	FillingsUpdate:  mu: -0.098091953  nElectrons: 63.000000
	SubspaceRotationAdjust: set factor to 0.31
ElecMinimize: Iter:   4  F: -298.194109092761380  |grad|_K:  3.063e-06  alpha:  1.478e-01  linmin: -6.224e-05  t[s]:     33.33
	FillingsUpdate:  mu: -0.095245707  nElectrons: 63.000000
	SubspaceRotationAdjust: set factor to 0.195
ElecMinimize: Iter:   5  F: -298.194168858620685  |grad|_K:  1.935e-06  alpha:  1.614e-01  linmin:  1.624e-05  t[s]:     39.64
	FillingsUpdate:  mu: -0.095753755  nElectrons: 63.000000
	SubspaceRotationAdjust: set factor to 0.273
ElecMinimize: Iter:   6  F: -298.194219966848664  |grad|_K:  2.135e-06  alpha:  3.528e-01  linmin: -1.505e-06  t[s]:     45.77
	FillingsUpdate:  mu: -0.099114595  nElectrons: 63.000000

Dumping 'X.fillings' ... done
Dumping 'X.wfns' ... done
Dumping 'X.force' ... done
Dumping 'X.eigenvals' ... done
	SubspaceRotationAdjust: set factor to 0.315
ElecMinimize: Iter:   7  F: -298.194284360685572  |grad|_K:  1.904e-06  alpha:  3.648e-01  linmin:  3.919e-06  t[s]:     52.37
	FillingsUpdate:  mu: -0.102766522  nElectrons: 63.000000
	SubspaceRotationAdjust: set factor to 0.414
ElecMinimize: Iter:   8  F: -298.194322566127937  |grad|_K:  1.640e-06  alpha:  2.725e-01  linmin:  6.200e-07  t[s]:     58.32
	FillingsUpdate:  mu: -0.105334505  nElectrons: 63.000000
	SubspaceRotationAdjust: set factor to 0.367
ElecMinimize: Iter:   9  F: -298.194354239792972  |grad|_K:  1.669e-06  alpha:  3.042e-01  linmin: -5.461e-07  t[s]:     64.21
	FillingsUpdate:  mu: -0.104837985  nElectrons: 63.000000
	SubspaceRotationAdjust: set factor to 0.55
ElecMinimize: Iter:  10  F: -298.194383655232116  |grad|_K:  1.482e-06  alpha:  2.730e-01  linmin: -3.062e-06  t[s]:     70.13
	FillingsUpdate:  mu: -0.102914483  nElectrons: 63.000000
	SubspaceRotationAdjust: set factor to 0.644
ElecMinimize: Iter:  11  F: -298.194405366281217  |grad|_K:  1.191e-06  alpha:  2.552e-01  linmin: -5.903e-06  t[s]:     76.13
	FillingsUpdate:  mu: -0.101944860  nElectrons: 63.000000
	SubspaceRotationAdjust: set factor to 0.758
ElecMinimize: Iter:  12  F: -298.194417551462436  |grad|_K:  8.744e-07  alpha:  2.213e-01  linmin: -4.938e-06  t[s]:     82.14
	FillingsUpdate:  mu: -0.102082225  nElectrons: 63.000000
	SubspaceRotationAdjust: set factor to 0.861
ElecMinimize: Iter:  13  F: -298.194423513474305  |grad|_K:  6.483e-07  alpha:  2.013e-01  linmin: -3.478e-06  t[s]:     87.95
	FillingsUpdate:  mu: -0.101690017  nElectrons: 63.000000
	SubspaceRotationAdjust: set factor to 0.971
ElecMinimize: Iter:  14  F: -298.194427086557198  |grad|_K:  5.186e-07  alpha:  2.196e-01  linmin: -1.109e-06  t[s]:     93.78
	FillingsUpdate:  mu: -0.101184401  nElectrons: 63.000000

Dumping 'X.fillings' ... done
Dumping 'X.wfns' ... done
Dumping 'X.force' ... done
Dumping 'X.eigenvals' ... done
	SubspaceRotationAdjust: set factor to 1.19
ElecMinimize: Iter:  15  F: -298.194429425287467  |grad|_K:  4.729e-07  alpha:  2.246e-01  linmin: -3.410e-07  t[s]:    100.02
	FillingsUpdate:  mu: -0.101456110  nElectrons: 63.000000
	SubspaceRotationAdjust: set factor to 1.42
ElecMinimize: Iter:  16  F: -298.194431065177469  |grad|_K:  3.744e-07  alpha:  1.894e-01  linmin:  6.689e-07  t[s]:    105.87
	FillingsUpdate:  mu: -0.101413450  nElectrons: 63.000000
	SubspaceRotationAdjust: set factor to 1.67
ElecMinimize: Iter:  17  F: -298.194432138681520  |grad|_K:  2.964e-07  alpha:  1.979e-01  linmin:  1.032e-06  t[s]:    111.79
	FillingsUpdate:  mu: -0.101261771  nElectrons: 63.000000
	SubspaceRotationAdjust: set factor to 1.86
ElecMinimize: Iter:  18  F: -298.194432803027553  |grad|_K:  2.699e-07  alpha:  1.955e-01  linmin: -1.028e-07  t[s]:    117.53
	FillingsUpdate:  mu: -0.101519478  nElectrons: 63.000000
	SubspaceRotationAdjust: set factor to 1.85
[...]
ion Na   0.000000000000000   0.000000000000000   0.442607418183813 1
ion Na   0.500000000000000   0.500000000000000   0.500000000000000 1
ion Na   0.000000000000000   0.000000000000000   0.557392581816187 1
ion Na   0.500000000000000   0.500000000000000   0.615135014499600 1
ion Na  -0.000000000000000   0.000000000000000   0.672903731511507 1

# Forces in Lattice coordinates:
force Na  -0.000000000000000   0.000000000000000  -0.000091061670201 1
force Na   0.000000000000000  -0.000000000000000  -0.000794451599339 1
force Na   0.000000000000000  -0.000000000000000  -0.002468453415043 1
force Na  -0.000000000000000   0.000000000000000   0.000000000000000 1
force Na  -0.000000000000000   0.000000000000000   0.002468453414588 1
force Na   0.000000000000000   0.000000000000000   0.000794451599794 1
force Na  -0.000000000000000   0.000000000000000   0.000091061670656 1

# Energy components:
   Eewald =    -1949.7627902266408455
       EH =    -1710.9695441388930703
     Eloc =     3345.0704331659308082
      Enl =      -90.5128634091906576
   Epulay =       -0.0000000141666782
      Exc =      -43.8183809803609350
       KE =      151.8125890599872889
-------------------------------------
     Etot =     -298.1805565433340917
       TS =        0.0003059464762140
-------------------------------------
        F =     -298.1808624898102948

IonicMinimize: Iter:   8  F: -298.180862489810295  |grad|_K:  1.158e-05  alpha:  1.000e+00  linmin: -4.006e-01  t[s]:   1706.10

#--- Lowdin population analysis ---
# oxidation-state Na +0.053 +0.048 +0.032 +0.056 +0.032 +0.048 +0.053


-------- Electronic minimization -----------
	FillingsUpdate:  mu: -0.097596482  nElectrons: 63.000000
ElecMinimize: Iter:   0  F: -298.180855612069877  |grad|_K:  6.405e-07  alpha:  1.000e+00
	FillingsUpdate:  mu: -0.097884715  nElectrons: 63.000000
	SubspaceRotationAdjust: set factor to 0.259
ElecMinimize: Iter:   1  F: -298.180862035426287  |grad|_K:  1.325e-07  alpha:  2.895e-01  linmin:  2.188e-06  t[s]:   1720.38
	FillingsUpdate:  mu: -0.097857469  nElectrons: 63.000000
	SubspaceRotationAdjust: set factor to 0.279
ElecMinimize: Iter:   2  F: -298.180862410386624  |grad|_K:  6.397e-08  alpha:  3.945e-01  linmin: -1.889e-04  t[s]:   1728.55
	FillingsUpdate:  mu: -0.097887946  nElectrons: 63.000000
	SubspaceRotationAdjust: set factor to 0.31
ElecMinimize: Iter:   3  F: -298.180862526672229  |grad|_K:  4.447e-08  alpha:  5.248e-01  linmin: -1.061e-04  t[s]:   1736.86
	FillingsUpdate:  mu: -0.097877394  nElectrons: 63.000000
	SubspaceRotationAdjust: set factor to 0.331
ElecMinimize: Iter:   4  F: -298.180862596738564  |grad|_K:  3.870e-08  alpha:  6.545e-01  linmin: -9.423e-05  t[s]:   1745.24
	FillingsUpdate:  mu: -0.097913361  nElectrons: 63.000000
	SubspaceRotationAdjust: set factor to 0.337
ElecMinimize: Iter:   5  F: -298.180862641246108  |grad|_K:  3.097e-08  alpha:  5.479e-01  linmin:  1.125e-04  t[s]:   1753.50
	FillingsUpdate:  mu: -0.097895037  nElectrons: 63.000000
	SubspaceRotationAdjust: set factor to 0.334
ElecMinimize: Iter:   6  F: -298.180862666557800  |grad|_K:  2.236e-08  alpha:  4.890e-01  linmin: -3.881e-06  t[s]:   1761.74
	FillingsUpdate:  mu: -0.097901352  nElectrons: 63.000000

Dumping 'X.fillings' ... done
Dumping 'X.wfns' ... done
Dumping 'X.ionpos' ... done
Dumping 'X.force' ... done
Dumping 'X.eigenvals' ... done
	SubspaceRotationAdjust: set factor to 0.341
ElecMinimize: Iter:   7  F: -298.180862679257700  |grad|_K:  1.668e-08  alpha:  4.663e-01  linmin: -3.422e-04  t[s]:   1770.58
	FillingsUpdate:  mu: -0.097905031  nElectrons: 63.000000
	SubspaceRotationAdjust: set factor to 0.352
ElecMinimize: Iter:   8  F: -298.180862686137971  |grad|_K:  1.314e-08  alpha:  4.542e-01  linmin:  6.287e-05  t[s]:   1778.86
	FillingsUpdate:  mu: -0.097889681  nElectrons: 63.000000
	SubspaceRotationAdjust: set factor to 0.354
ElecMinimize: Iter:   9  F: -298.180862690838410  |grad|_K:  1.098e-08  alpha:  5.061e-01  linmin:  5.214e-04  t[s]:   1787.15
ElecMinimize: Converged (|Delta F|<1.000000e-08 for 2 iters).
Setting wave functions to eigenvectors of Hamiltonian
Converging empty states (this may take a while): |deigs|: 6.012e-09

# Ionic positions in lattice coordinates:
ion Na  -0.000000000000000   0.000000000000000   0.326990697237441 1
ion Na   0.500000000000000   0.500000000000000   0.384818388256314 1
ion Na   0.000000000000000   0.000000000000000   0.442528592640434 1
ion Na   0.500000000000000   0.500000000000000   0.500000000000000 1
ion Na   0.000000000000000   0.000000000000000   0.557471407359566 1
ion Na   0.500000000000000   0.500000000000000   0.615181611743686 1
ion Na  -0.000000000000000   0.000000000000000   0.673009302762559 1

# Forces in Lattice coordinates:
force Na   0.000000000000000   0.000000000000000   0.001474191183974 1
force Na   0.000000000000000   0.000000000000000  -0.000860447980223 1
force Na   0.000000000000000   0.000000000000000  -0.000075138617028 1
force Na   0.000000000000000  -0.000000000000000   0.000000000000000 1
force Na   0.000000000000000  -0.000000000000000   0.000075138617028 1
force Na   0.000000000000000   0.000000000000000   0.000860447980223 1
force Na  -0.000000000000000  -0.000000000000000  -0.001474191185339 1

# Energy components:
   Eewald =    -1950.8418656541684868
       EH =    -1712.0497983761015348
     Eloc =     3347.2299871219061060
      Enl =      -90.5128100227268817
   Epulay =       -0.0000000141666782
      Exc =      -43.8181432971323233
       KE =      151.8120731960650573
-------------------------------------
     Etot =     -298.1805570463247363
       TS =        0.0003056445136832
-------------------------------------
        F =     -298.1808626908384099

IonicMinimize: Iter:   9  F: -298.180862690838410  |grad|_K:  7.624e-06  alpha:  1.000e+00  linmin:  4.591e-01  t[s]:   1794.70
IonicMinimize: Converged (|grad|_K<1.000000e-05).

#--- Lowdin population analysis ---
# oxidation-state Na +0.053 +0.048 +0.032 +0.056 +0.032 +0.048 +0.053


Dumping 'X.fillings' ... done
Dumping 'X.wfns' ... done
Dumping 'X.ionpos' ... done
Dumping 'X.lattice' ... done
Dumping 'X.n' ... done
Dumping 'X.eigenvals' ... done
Dumping 'X.eigStats' ... 
	eMin: -2.059418 at state 0 ( [ +0.000000 +0.000000 +0.000000 ] spin 0 )
	HOMO: -0.099541 at state 9 ( [ +0.090909 +0.363636 +0.000000 ] spin 0 )
	mu  : -0.097890
	LUMO: -0.097241 at state 2 ( [ +0.000000 +0.181818 +0.000000 ] spin 0 )
	eMax: -0.018794 at state 11 ( [ +0.181818 +0.181818 +0.000000 ] spin 0 )
	HOMO-LUMO gap: +0.002300
	Optical gap  : +0.004667 at state 14 ( [ +0.181818 +0.454545 +0.000000 ] spin 0 )
Dumping 'X.dos' ... done.
End date and time: Thu Nov  9 00:32:23 2023  (Duration: 0-0:29:55.55)
Done!

*************** JDFTx 1.7.0 (git hash 7d4d6a67) ***************

Start date and time: Mon Nov 13 16:02:57 2023
Executable jdftx with command-line: -n -i X.in -o X.out
Running on hosts (process indices):  login01.ares.cyfronet.pl (0)
Divided in process groups (process indices):  0 (0)
Resource initialization completed at t[s]:      0.00
Run totals: 1 processes, 12 threads, 0 GPUs


Input parsed successfully to the following command list (including defaults):

basis kpoint-dependent
cache-projectors no
converge-empty-states yes
coords-type Lattice
core-overlap-check vector
coulomb-interaction Slab 001
coulomb-truncation-embed 0 0 0.5
davidson-band-ratio 1.1
debug  KpointsBasisSymmetries
density-of-states Etol 1.000000e-06 Esigma 0.000000e+00 \
		Complete \
	Total \
		Occupied \
	Total
dump End State IonicPositions Lattice ElecDensity CoreDensity EigStats DOS
dump Electronic State Forces
dump Ionic State IonicPositions Forces Lattice DOS
dump-interval Electronic 8
dump-interval Ionic 4
dump-name X.$var
elec-cutoff 50
elec-eigen-algo Davidson
elec-ex-corr gga-PBE
elec-smearing Fermi 0.00095
electronic-minimize  \
	dirUpdateScheme      FletcherReeves \
	linminMethod         DirUpdateRecommended \
	nIterations          2000 \
	history              15 \
	knormThreshold       0 \
	energyDiffThreshold  1e-08 \
	nEnergyDiff          2 \
	alphaTstart          1 \
	alphaTmin            1e-10 \
	updateTestStepSize   yes \
	alphaTreduceFactor   0.1 \
	alphaTincreaseFactor 3 \
	nAlphaAdjustMax      3 \
	wolfeEnergy          0.0001 \
	wolfeGradient        0.9 \
	fdTest               no
exchange-regularization WignerSeitzTruncated
fluid None
fluid-ex-corr (null) lda-PZ
fluid-gummel-loop 10 1.000000e-05
fluid-minimize  \
	dirUpdateScheme      PolakRibiere \
	linminMethod         DirUpdateRecommended \
	nIterations          100 \
	history              15 \
	knormThreshold       0 \
	energyDiffThreshold  0 \
	nEnergyDiff          2 \
	alphaTstart          1 \
	alphaTmin            1e-10 \
	updateTestStepSize   yes \
	alphaTreduceFactor   0.1 \
	alphaTincreaseFactor 3 \
	nAlphaAdjustMax      3 \
	wolfeEnergy          0.0001 \
	wolfeGradient        0.9 \
	fdTest               no
fluid-solvent H2O 55.338 ScalarEOS \
	epsBulk 78.4 \
	pMol 0.92466 \
	epsInf 1.77 \
	Pvap 1.06736e-10 \
	sigmaBulk 4.62e-05 \
	Rvdw 2.61727 \
	Res 1.42 \
	tauNuc 343133 \
	poleEl 15 7 1
forces-output-coords Positions
initial-state X.$var
ion Na  -0.000000000000000   0.000000000000000   0.326990697237441 1
ion Na   0.500000000000000   0.500000000000000   0.384818388256314 1
ion Na   0.000000000000000   0.000000000000000   0.442528592640434 1
ion Na   0.500000000000000   0.500000000000000   0.500000000000000 1
ion Na   0.000000000000000   0.000000000000000   0.557471407359566 1
ion Na   0.500000000000000   0.500000000000000   0.615181611743686 1
ion Na  -0.000000000000000   0.000000000000000   0.673009302762559 1
ion-species SG15/$ID_ONCV_PBE.upf
ion-width 0
ionic-minimize  \
	dirUpdateScheme      L-BFGS \
	linminMethod         DirUpdateRecommended \
	nIterations          200 \
	history              15 \
	knormThreshold       1e-05 \
	energyDiffThreshold  1e-07 \
	nEnergyDiff          2 \
	alphaTstart          1 \
	alphaTmin            1e-10 \
	updateTestStepSize   yes \
	alphaTreduceFactor   0.1 \
	alphaTincreaseFactor 3 \
	nAlphaAdjustMax      3 \
	wolfeEnergy          0.0001 \
	wolfeGradient        0.9 \
	fdTest               no
kpoint   0.000000000000   0.000000000000   0.000000000000  1.00000000000000
kpoint-folding 11 11 1 
latt-move-scale 1 1 1
latt-scale 1 1 1 
lattice  \
	   7.936714821600003   -0.000000000000000   -0.000000000000000  \
	   0.000000000000000    7.936714821600003   -0.000000000000000  \
	   0.000000000000000    0.000000000000000   69.163740054000002 
lattice-minimize  \
	dirUpdateScheme      L-BFGS \
	linminMethod         DirUpdateRecommended \
	nIterations          0 \
	history              15 \
	knormThreshold       0 \
	energyDiffThreshold  1e-06 \
	nEnergyDiff          2 \
	alphaTstart          1 \
	alphaTmin            1e-10 \
	updateTestStepSize   yes \
	alphaTreduceFactor   0.1 \
	alphaTincreaseFactor 3 \
	nAlphaAdjustMax      3 \
	wolfeEnergy          0.0001 \
	wolfeGradient        0.9 \
	fdTest               no
lcao-params -1 1e-06 0.00095
pcm-variant GLSSA13
spintype no-spin
subspace-rotation-factor 1 yes
symmetries automatic
symmetry-threshold 0.0001



---------- Setting up symmetries ----------

Found 16 point-group symmetries of the bravais lattice
Found 16 space-group symmetries with basis
[   1   0   0  ]
[   0   1   0  ]
[   0   0   1  ]
[  0  0  0  ]

[  -1   0   0  ]
[   0  -1   0  ]
[   0   0   1  ]
[  0  0  0  ]

[  -1   0   0  ]
[   0   1   0  ]
[   0   0  -1  ]
[  0  0  0  ]

[  -1   0   0  ]
[   0   1   0  ]
[   0   0   1  ]
[  0  0  0  ]

[   0  -1   0  ]
[  -1   0   0  ]
[   0   0  -1  ]
[  0  0  0  ]

[   0  -1   0  ]
[  -1   0   0  ]
[   0   0   1  ]
[  0  0  0  ]

[   0  -1   0  ]
[   1   0   0  ]
[   0   0  -1  ]
[  0  0  0  ]

[   0  -1   0  ]
[   1   0   0  ]
[   0   0   1  ]
[  0  0  0  ]

[   0   1   0  ]
[  -1   0   0  ]
[   0   0  -1  ]
[  0  0  0  ]

[   0   1   0  ]
[  -1   0   0  ]
[   0   0   1  ]
[  0  0  0  ]

[   0   1   0  ]
[   1   0   0  ]
[   0   0  -1  ]
[  0  0  0  ]

[   0   1   0  ]
[   1   0   0  ]
[   0   0   1  ]
[  0  0  0  ]

[   1   0   0  ]
[   0  -1   0  ]
[   0   0  -1  ]
[  0  0  0  ]

[   1   0   0  ]
[   0  -1   0  ]
[   0   0   1  ]
[  0  0  0  ]

[   1   0   0  ]
[   0   1   0  ]
[   0   0  -1  ]
[  0  0  0  ]

[  -1   0   0  ]
[   0  -1   0  ]
[   0   0  -1  ]
[  0  0  0  ]


Mapping of atoms according to symmetries:
Na   0:    0   0   6   0   6   0   6   0   6   0   6   0   6   0   6   6
Na   1:    1   1   5   1   5   1   5   1   5   1   5   1   5   1   5   5
Na   2:    2   2   4   2   4   2   4   2   4   2   4   2   4   2   4   4
Na   3:    3   3   3   3   3   3   3   3   3   3   3   3   3   3   3   3
Na   4:    4   4   2   4   2   4   2   4   2   4   2   4   2   4   2   2
Na   5:    5   5   1   5   1   5   1   5   1   5   1   5   1   5   1   1
Na   6:    6   6   0   6   0   6   0   6   0   6   0   6   0   6   0   0
Applied RMS atom displacement 0 bohrs to make symmetries exact.

---------- Initializing the Grid ----------
R = 
[      7.93671            0            0  ]
[            0      7.93671            0  ]
[            0            0      69.1637  ]
unit cell volume = 4356.72
G =
[   0.791661          0          0  ]
[         -0   0.791661          0  ]
[          0         -0  0.0908451  ]
Minimum fftbox size, Smin = [  52  52  444  ]
Chosen fftbox size, S = [  54  54  448  ]

---------- Exchange Correlation functional ----------
Initalized PBE GGA exchange.
Initalized PBE GGA correlation.

---------- Setting up pseudopotentials ----------
Width of ionic core gaussian charges (only for fluid interactions / plotting) set to 0

Reading pseudopotential file '/net/people/plgrid/plgigoro/jdftx1.7.0_nothreadmkl_fftw_libxc_git_ares/build/pseudopotentials/SG15/Na_ONCV_PBE.upf':
  'Na' pseudopotential, 'PBE' functional
  Generated using ONCVPSP code by D. R. Hamann
  Author: Martin Schlipf and Francois Gygi  Date: 150915.
  9 valence electrons, 3 orbitals, 4 projectors, 1992 radial grid points, with lMax = 1
  Transforming local potential to a uniform radial grid of dG=0.02 with 1827 points.
  Transforming nonlocal projectors to a uniform radial grid of dG=0.02 with 680 points.
    2S    l: 0   occupation:  2.0   eigenvalue: -2.085640
    2P    l: 1   occupation:  6.0   eigenvalue: -1.053708
    3S    l: 0   occupation:  1.0   eigenvalue: -0.100838
  Transforming atomic orbitals to a uniform radial grid of dG=0.02 with 680 points.
  Core radius for overlap checks: 2.01 bohrs.
  Reading pulay file /net/people/plgrid/plgigoro/jdftx1.7.0_nothreadmkl_fftw_libxc_git_ares/build/pseudopotentials/SG15/Na_ONCV_PBE.pulay ... using dE_dnG = -4.628430e-06 computed for Ecut = 50.

Initialized 1 species with 7 total atoms.

Folded 1 k-points by 11x11x1 to 121 k-points.

---------- Setting up k-points, bands, fillings ----------
Reduced to 21 k-points under symmetry. States including spin/spin-weights:
    0  [ +0.0000000 +0.0000000 +0.0000000 ]  0.016528926
    1  [ +0.0000000 +0.0909091 +0.0000000 ]  0.066115702
    2  [ +0.0000000 +0.1818182 +0.0000000 ]  0.066115702
    3  [ +0.0000000 +0.2727273 +0.0000000 ]  0.066115702
    4  [ +0.0000000 +0.3636364 +0.0000000 ]  0.066115702
    5  [ +0.0000000 +0.4545455 +0.0000000 ]  0.066115702
    6  [ +0.0909091 +0.0909091 +0.0000000 ]  0.066115702
    7  [ +0.0909091 +0.1818182 +0.0000000 ]  0.132231405
    8  [ +0.0909091 +0.2727273 +0.0000000 ]  0.132231405
    9  [ +0.0909091 +0.3636364 +0.0000000 ]  0.132231405
   10  [ +0.0909091 +0.4545455 +0.0000000 ]  0.132231405
   11  [ +0.1818182 +0.1818182 +0.0000000 ]  0.066115702
   12  [ +0.1818182 +0.2727273 +0.0000000 ]  0.132231405
   13  [ +0.1818182 +0.3636364 +0.0000000 ]  0.132231405
   14  [ +0.1818182 +0.4545455 +0.0000000 ]  0.132231405
   15  [ +0.2727273 +0.2727273 +0.0000000 ]  0.066115702
   16  [ +0.2727273 +0.3636364 +0.0000000 ]  0.132231405
   17  [ +0.2727273 +0.4545455 +0.0000000 ]  0.132231405
   18  [ +0.3636364 +0.3636364 +0.0000000 ]  0.066115702
   19  [ +0.3636364 +0.4545455 +0.0000000 ]  0.132231405
   20  [ +0.4545455 +0.4545455 +0.0000000 ]  0.066115702
Computing the number of bands and number of electrons
Reading initial fillings from file X.fillings.
nElectrons:  63.000000   nBands: 35   nStates: 21

----- Setting up reduced wavefunction bases (one per k-point) -----
nbasis = 73589 for k = [   0.000   0.000   0.000  ]
nbasis = 73627 for k = [   0.000   0.091   0.000  ]
nbasis = 73615 for k = [   0.000   0.182   0.000  ]
nbasis = 73575 for k = [   0.000   0.273   0.000  ]
nbasis = 73633 for k = [   0.000   0.364   0.000  ]
nbasis = 73638 for k = [   0.000   0.455   0.000  ]
nbasis = 73632 for k = [   0.091   0.091   0.000  ]
nbasis = 73653 for k = [   0.091   0.182   0.000  ]
nbasis = 73612 for k = [   0.091   0.273   0.000  ]
nbasis = 73574 for k = [   0.091   0.364   0.000  ]
nbasis = 73604 for k = [   0.091   0.455   0.000  ]
nbasis = 73646 for k = [   0.182   0.182   0.000  ]
nbasis = 73590 for k = [   0.182   0.273   0.000  ]
nbasis = 73540 for k = [   0.182   0.364   0.000  ]
nbasis = 73529 for k = [   0.182   0.455   0.000  ]
nbasis = 73528 for k = [   0.273   0.273   0.000  ]
nbasis = 73524 for k = [   0.273   0.364   0.000  ]
nbasis = 73548 for k = [   0.273   0.455   0.000  ]
nbasis = 73490 for k = [   0.364   0.364   0.000  ]
nbasis = 73472 for k = [   0.364   0.455   0.000  ]
nbasis = 73404 for k = [   0.455   0.455   0.000  ]
average nbasis = 73569.496 , ideal nbasis = 73571.401

----- Initializing Supercell corresponding to k-point mesh -----
Lattice vector linear combinations in supercell:
[  11   0   0  ]
[   0  11   0  ]
[   0   0   1  ]
Supercell lattice vectors:
[  87.3039  0  0  ]
[  0  87.3039  0  ]
[  0  0  69.1637  ]

---------- Setting up coulomb interaction ----------
Setting up double-sized grid for truncated Coulomb potentials:
R = 
[      7.93671            0            0  ]
[            0      7.93671            0  ]
[            0            0      138.327  ]
unit cell volume = 8713.45
G =
[   0.791661          0          0  ]
[         -0   0.791661          0  ]
[          0         -0  0.0454225  ]
Chosen fftbox size, S = [  54  54  896  ]
Integer grid location selected as the embedding center:
   Grid: [  0  0  224  ]
   Lattice: [  0  0  0.5  ]
   Cartesian: [  0  0  34.5819  ]
Constructing Wigner-Seitz cell: 6 faces (6 quadrilaterals, 0 hexagons)
Range-separation parameter for embedded mesh potentials due to point charges: 0.49569 bohrs.
Initialized slab truncation along lattice direction 001

---------- Setting up 2D ewald sum ----------
Optimum gaussian width for ewald sums = 4.734710 bohr.
Real space sums over 225 unit cells with max indices [  7  7  0  ]
Reciprocal space sums over 81 terms with max indices [  4  4  0  ]

---------- Allocating electronic variables ----------
Skipped wave function initialization.


---- Citations for features of the code used in this run ----

   Software package:
      R. Sundararaman, K. Letchworth-Weaver, K.A. Schwarz, D. Gunceler, Y. Ozhabes and T.A. Arias, 'JDFTx: software for joint density-functional theory', SoftwareX 6, 278 (2017)

   gga-PBE exchange-correlation functional:
      J.P. Perdew, K. Burke and M. Ernzerhof, Phys. Rev. Lett. 77, 3865 (1996)

   Pseudopotentials:
      M Schlipf and F Gygi, Comput. Phys. Commun. 196, 36 (2015)

   Truncated Coulomb potentials:
      R. Sundararaman and T.A. Arias, Phys. Rev. B 87, 165122 (2013)

   Total energy minimization with Auxiliary Hamiltonian:
      C. Freysoldt, S. Boeck, and J. Neugebauer, Phys. Rev. B 79, 241103(R) (2009)

   Linear-tetrahedron sampling for density of states:
      G. Lehmann and M. Taut, Phys. status solidi (b) 54, 469 (1972)

This list may not be complete. Please suggest additional citations or
report any other bugs at https://github.com/shankar1729/jdftx/issues

Dry run successful: commands are valid and initialization succeeded.
End date and time: Mon Nov 13 16:03:04 2023  (Duration: 0-0:00:07.65)
Done!
