
*************** JDFTx 1.7.0  ***************

Start date and time: Thu Nov  9 01:24:57 2023
Executable jdftx with command-line: -m -i X.in -o X.out
Running on hosts (process indices):  ac0735 (0-20)
Divided in process groups (process indices):  0 (0)  1 (1)  2 (2)  3 (3)  4 (4)  5 (5)  6 (6)  7 (7)  8 (8)  9 (9)  10 (10)  11 (11)  12 (12)  13 (13)  14 (14)  15 (15)  16 (16)  17 (17)  18 (18)  19 (19)  20 (20)
Resource initialization completed at t[s]:      0.02
Run totals: 21 processes, 21 threads, 0 GPUs


Input parsed successfully to the following command list (including defaults):

basis kpoint-dependent
cache-projectors no
coords-type Lattice
core-overlap-check vector
coulomb-interaction Slab 001
coulomb-truncation-embed 0 0 0.5
davidson-band-ratio 1.1
density-of-states Etol 1.000000e-06 Esigma 0.000000e+00 \
		Complete \
	Total \
		Occupied \
	Total
dump End State IonicPositions Lattice ElecDensity CoreDensity EigStats DOS
dump Electronic State Forces
dump Ionic State IonicPositions Forces Lattice DOS
dump-interval Electronic 8
dump-interval Ionic 4
dump-name X.$var
elec-cutoff 10
elec-eigen-algo Davidson
elec-ex-corr gga-PBE
elec-smearing Fermi 0.0095
electronic-minimize  \
	dirUpdateScheme      FletcherReeves \
	linminMethod         DirUpdateRecommended \
	nIterations          2000 \
	history              15 \
	knormThreshold       0 \
	energyDiffThreshold  1e-06 \
	nEnergyDiff          2 \
	alphaTstart          1 \
	alphaTmin            1e-10 \
	updateTestStepSize   yes \
	alphaTreduceFactor   0.1 \
	alphaTincreaseFactor 3 \
	nAlphaAdjustMax      3 \
	wolfeEnergy          0.0001 \
	wolfeGradient        0.9 \
	fdTest               no
exchange-regularization WignerSeitzTruncated
fluid None
fluid-ex-corr (null) lda-PZ
fluid-gummel-loop 10 1.000000e-05
fluid-minimize  \
	dirUpdateScheme      PolakRibiere \
	linminMethod         DirUpdateRecommended \
	nIterations          100 \
	history              15 \
	knormThreshold       0 \
	energyDiffThreshold  0 \
	nEnergyDiff          2 \
	alphaTstart          1 \
	alphaTmin            1e-10 \
	updateTestStepSize   yes \
	alphaTreduceFactor   0.1 \
	alphaTincreaseFactor 3 \
	nAlphaAdjustMax      3 \
	wolfeEnergy          0.0001 \
	wolfeGradient        0.9 \
	fdTest               no
fluid-solvent H2O 55.338 ScalarEOS \
	epsBulk 78.4 \
	pMol 0.92466 \
	epsInf 1.77 \
	Pvap 1.06736e-10 \
	sigmaBulk 4.62e-05 \
	Rvdw 2.61727 \
	Res 1.42 \
	tauNuc 343133 \
	poleEl 15 7 1
forces-output-coords Positions
initial-state X.$var
ion Na   0.000000000000000   0.000000000000000   0.194180000000000 1
ion Na   0.500000000000000   0.500000000000000   0.228160000000000 1
ion Na   0.000000000000000   0.000000000000000   0.262140000000000 1
ion Na   0.500000000000000   0.500000000000000   0.296120000000000 1
ion Na   0.000000000000000   0.000000000000000   0.330100000000000 1
ion Na   0.500000000000000   0.500000000000000   0.364080000000000 1
ion Na   0.000000000000000   0.000000000000000   0.398060000000000 1
ion Na   0.500000000000000   0.500000000000000   0.432040000000000 1
ion Na   0.000000000000000   0.000000000000000   0.466020000000000 1
ion Na   0.500000000000000   0.500000000000000   0.500000000000000 1
ion Na   0.000000000000000   0.000000000000000   0.533980000000000 1
ion Na   0.500000000000000   0.500000000000000   0.567960000000000 1
ion Na   0.000000000000000   0.000000000000000   0.601940000000000 1
ion Na   0.500000000000000   0.500000000000000   0.635920000000000 1
ion Na   0.000000000000000   0.000000000000000   0.669900000000000 1
ion Na   0.500000000000000   0.500000000000000   0.703880000000000 1
ion Na   0.000000000000000   0.000000000000000   0.737860000000000 1
ion Na   0.500000000000000   0.500000000000000   0.771840000000000 1
ion Na   0.000000000000000   0.000000000000000   0.805820000000000 1
ion-species SG15/$ID_ONCV_PBE.upf
ion-width 0
ionic-minimize  \
	dirUpdateScheme      L-BFGS \
	linminMethod         DirUpdateRecommended \
	nIterations          0 \
	history              15 \
	knormThreshold       0.0001 \
	energyDiffThreshold  1e-06 \
	nEnergyDiff          2 \
	alphaTstart          1 \
	alphaTmin            1e-10 \
	updateTestStepSize   yes \
	alphaTreduceFactor   0.1 \
	alphaTincreaseFactor 3 \
	nAlphaAdjustMax      3 \
	wolfeEnergy          0.0001 \
	wolfeGradient        0.9 \
	fdTest               no
kpoint   0.000000000000   0.000000000000   0.000000000000  1.00000000000000
kpoint-folding 11 11 1 
latt-move-scale 1 1 1
latt-scale 1.88973 1.88973 1.88973 
lattice  \
	   4.199920000000001   -0.000000000000000   -0.000000000000000  \
	   0.000000000000000    4.199920000000001   -0.000000000000000  \
	   0.000000000000000    0.000000000000000   61.799300000000002 
lattice-minimize  \
	dirUpdateScheme      L-BFGS \
	linminMethod         DirUpdateRecommended \
	nIterations          0 \
	history              15 \
	knormThreshold       0 \
	energyDiffThreshold  1e-06 \
	nEnergyDiff          2 \
	alphaTstart          1 \
	alphaTmin            1e-10 \
	updateTestStepSize   yes \
	alphaTreduceFactor   0.1 \
	alphaTincreaseFactor 3 \
	nAlphaAdjustMax      3 \
	wolfeEnergy          0.0001 \
	wolfeGradient        0.9 \
	fdTest               no
lcao-params -1 1e-06 0.0095
pcm-variant GLSSA13
spintype no-spin
subspace-rotation-factor 1 yes
symmetries automatic
symmetry-threshold 0.0001



---------- Setting up symmetries ----------

Found 16 point-group symmetries of the bravais lattice
Found 16 space-group symmetries with basis
Applied RMS atom displacement 0 bohrs to make symmetries exact.

---------- Initializing the Grid ----------
R = 
[      7.93671            0            0  ]
[            0      7.93671            0  ]
[            0            0      116.784  ]
unit cell volume = 7356.39
G =
[   0.791661          0          0  ]
[         -0   0.791661          0  ]
[          0         -0  0.0538018  ]
Minimum fftbox size, Smin = [  24  24  336  ]
Chosen fftbox size, S = [  24  24  336  ]

---------- Exchange Correlation functional ----------
Initalized PBE GGA exchange.
Initalized PBE GGA correlation.

---------- Setting up pseudopotentials ----------
Width of ionic core gaussian charges (only for fluid interactions / plotting) set to 0

Reading pseudopotential file '/net/software/testing/software/jdftx/1.7.0-foss-2021b-mkl/share/jdftx/pseudopotentials/SG15/Na_ONCV_PBE.upf':
  'Na' pseudopotential, 'PBE' functional
  Generated using ONCVPSP code by D. R. Hamann
  Author: Martin Schlipf and Francois Gygi  Date: 150915.
  9 valence electrons, 3 orbitals, 4 projectors, 1992 radial grid points, with lMax = 1
  Transforming local potential to a uniform radial grid of dG=0.02 with 815 points.
  Transforming nonlocal projectors to a uniform radial grid of dG=0.02 with 307 points.
    2S    l: 0   occupation:  2.0   eigenvalue: -2.085640
    2P    l: 1   occupation:  6.0   eigenvalue: -1.053708
    3S    l: 0   occupation:  1.0   eigenvalue: -0.100838
  Transforming atomic orbitals to a uniform radial grid of dG=0.02 with 307 points.
  Core radius for overlap checks: 2.01 bohrs.
  Reading pulay file /net/software/testing/software/jdftx/1.7.0-foss-2021b-mkl/share/jdftx/pseudopotentials/SG15/Na_ONCV_PBE.pulay ... using dE_dnG = -1.681960e+00 computed for Ecut = 10.

Initialized 1 species with 19 total atoms.

Folded 1 k-points by 11x11x1 to 121 k-points.

---------- Setting up k-points, bands, fillings ----------
Reduced to 21 k-points under symmetry. 
Computing the number of bands and number of electrons
Calculating initial fillings.
nElectrons: 171.000000   nBands: 95   nStates: 21

----- Setting up reduced wavefunction bases (one per k-point) -----
average nbasis = 11109.512 , ideal nbasis = 11111.146

----- Initializing Supercell corresponding to k-point mesh -----
Lattice vector linear combinations in supercell:
[  11   0   0  ]
[   0  11   0  ]
[   0   0   1  ]
Supercell lattice vectors:
[  87.3039  0  0  ]
[  0  87.3039  0  ]
[  0  0  116.784  ]

---------- Setting up coulomb interaction ----------
Setting up double-sized grid for truncated Coulomb potentials:
R = 
[      7.93671            0            0  ]
[            0      7.93671            0  ]
[            0            0      233.568  ]
unit cell volume = 14712.8
G =
[   0.791661          0          0  ]
[         -0   0.791661          0  ]
[          0         -0  0.0269009  ]
Chosen fftbox size, S = [  24  24  672  ]
Integer grid location selected as the embedding center:
   Grid: [  0  0  168  ]
   Lattice: [  0  0  0.5  ]
   Cartesian: [  0  0  58.392  ]
Constructing Wigner-Seitz cell: 6 faces (6 quadrilaterals, 0 hexagons)
Range-separation parameter for embedded mesh potentials due to point charges: 0.743759 bohrs.
Initialized slab truncation along lattice direction 001

---------- Setting up 2D ewald sum ----------
Optimum gaussian width for ewald sums = 4.734710 bohr.
Real space sums over 225 unit cells with max indices [  7  7  0  ]
Reciprocal space sums over 81 terms with max indices [  4  4  0  ]

---------- Allocating electronic variables ----------
Initializing wave functions:  linear combination of atomic orbitals
Na pseudo-atom occupations:   s ( 2 1 )  p ( 6 )
	FillingsUpdate:  mu: +0.385678835  nElectrons: 171.000000
LCAOMinimize: Iter:   0  F: -791.7304998838728807  |grad|_K:  7.632e-03  alpha:  1.000e+00
LCAOMinimize: 	Step increased F by 2.084657e+00, reducing alpha to 8.982363e-03.
	FillingsUpdate:  mu: +0.118254417  nElectrons: 171.000000
LCAOMinimize: Iter:   1  F: -791.8032414699605397  |grad|_K:  3.388e-03  alpha:  8.982e-03  linmin: -2.136e-01  cgtest:  9.668e-01  t[s]:      3.93
LCAOMinimize: Encountered beta<0, resetting CG.
	FillingsUpdate:  mu: -0.104877234  nElectrons: 171.000000
LCAOMinimize: Iter:   2  F: -791.8229420347423684  |grad|_K:  1.211e-03  alpha:  1.786e-02  linmin:  7.616e-03  cgtest: -5.245e-02  t[s]:      5.14
LCAOMinimize: 	Predicted alpha/alphaT>3.000000, increasing alphaT to 5.358606e-02.
	FillingsUpdate:  mu: -0.152160383  nElectrons: 171.000000
LCAOMinimize: Iter:   3  F: -791.8314484553429793  |grad|_K:  4.742e-04  alpha:  6.102e-02  linmin:  1.264e-03  cgtest:  1.482e-01  t[s]:      6.76
	FillingsUpdate:  mu: -0.109108001  nElectrons: 171.000000
LCAOMinimize: Iter:   4  F: -791.8330746246425633  |grad|_K:  8.162e-04  alpha:  7.504e-02  linmin:  7.001e-05  cgtest:  4.980e-03  t[s]:      7.97
	FillingsUpdate:  mu: -0.144357151  nElectrons: 171.000000
LCAOMinimize: Iter:   5  F: -791.8365943261533175  |grad|_K:  4.249e-04  alpha:  5.474e-02  linmin:  1.170e-05  cgtest:  2.177e-02  t[s]:      9.18
LCAOMinimize: 	Predicted alpha/alphaT>3.000000, increasing alphaT to 1.642258e-01.
	FillingsUpdate:  mu: -0.188529827  nElectrons: 171.000000
LCAOMinimize: Iter:   6  F: -791.8397069011906524  |grad|_K:  5.238e-04  alpha:  1.782e-01  linmin:  1.498e-05  cgtest: -2.538e-03  t[s]:     10.78
	FillingsUpdate:  mu: -0.154127073  nElectrons: 171.000000
LCAOMinimize: Iter:   7  F: -791.8404629594439257  |grad|_K:  4.290e-04  alpha:  2.817e-02  linmin: -1.727e-04  cgtest:  7.179e-03  t[s]:     12.00
	FillingsUpdate:  mu: -0.142482897  nElectrons: 171.000000
LCAOMinimize: Iter:   8  F: -791.8417758572765024  |grad|_K:  9.452e-05  alpha:  7.310e-02  linmin:  2.765e-04  cgtest: -2.411e-01  t[s]:     13.21
	FillingsUpdate:  mu: -0.152230532  nElectrons: 171.000000
LCAOMinimize: Iter:   9  F: -791.8418841944626365  |grad|_K:  1.591e-04  alpha:  1.265e-01  linmin:  1.284e-05  cgtest:  6.868e-03  t[s]:     14.42
	FillingsUpdate:  mu: -0.145273278  nElectrons: 171.000000
LCAOMinimize: Iter:  10  F: -791.8419425650007497  |grad|_K:  5.581e-05  alpha:  2.374e-02  linmin: -1.617e-04  cgtest:  4.430e-03  t[s]:     15.64
LCAOMinimize: 	Predicted alpha/alphaT>3.000000, increasing alphaT to 7.122653e-02.
	FillingsUpdate:  mu: -0.142638074  nElectrons: 171.000000
LCAOMinimize: Iter:  11  F: -791.8419695739214603  |grad|_K:  2.195e-05  alpha:  8.922e-02  linmin:  2.250e-05  cgtest: -1.941e-02  t[s]:     17.23
	FillingsUpdate:  mu: -0.144052628  nElectrons: 171.000000
LCAOMinimize: Iter:  12  F: -791.8419706508167337  |grad|_K:  1.560e-05  alpha:  2.309e-02  linmin: -2.283e-05  cgtest:  1.255e-03  t[s]:     18.43
LCAOMinimize: 	Predicted alpha/alphaT>3.000000, increasing alphaT to 6.925744e-02.
	FillingsUpdate:  mu: -0.144633605  nElectrons: 171.000000
LCAOMinimize: Iter:  13  F: -791.8419725749058671  |grad|_K:  8.360e-06  alpha:  8.172e-02  linmin:  4.009e-05  cgtest: -2.728e-03  t[s]:     20.04
	FillingsUpdate:  mu: -0.143703018  nElectrons: 171.000000
LCAOMinimize: Iter:  14  F: -791.8419734456333572  |grad|_K:  1.523e-05  alpha:  1.288e-01  linmin:  1.684e-05  cgtest: -7.612e-05  t[s]:     21.24
	FillingsUpdate:  mu: -0.144326232  nElectrons: 171.000000
LCAOMinimize: Iter:  15  F: -791.8419740455559577  |grad|_K:  6.840e-06  alpha:  2.677e-02  linmin: -1.360e-05  cgtest:  4.430e-03  t[s]:     22.45
LCAOMinimize: Converged (|Delta F|<1.000000e-06 for 2 iters).


---- Citations for features of the code used in this run ----

   Software package:
      R. Sundararaman, K. Letchworth-Weaver, K.A. Schwarz, D. Gunceler, Y. Ozhabes and T.A. Arias, 'JDFTx: software for joint density-functional theory', SoftwareX 6, 278 (2017)

   gga-PBE exchange-correlation functional:
      J.P. Perdew, K. Burke and M. Ernzerhof, Phys. Rev. Lett. 77, 3865 (1996)

   Pseudopotentials:
      M Schlipf and F Gygi, Comput. Phys. Commun. 196, 36 (2015)

   Truncated Coulomb potentials:
      R. Sundararaman and T.A. Arias, Phys. Rev. B 87, 165122 (2013)

   Total energy minimization with Auxiliary Hamiltonian:
      C. Freysoldt, S. Boeck, and J. Neugebauer, Phys. Rev. B 79, 241103(R) (2009)

   Linear-tetrahedron sampling for density of states:
      G. Lehmann and M. Taut, Phys. status solidi (b) 54, 469 (1972)

This list may not be complete. Please suggest additional citations or
report any other bugs at https://github.com/shankar1729/jdftx/issues

Initialization completed successfully at t[s]:     22.60


-------- Electronic minimization -----------
	FillingsUpdate:  mu: -0.144326232  nElectrons: 171.000000
ElecMinimize: Iter:   0  F: -791.841974045570396  |grad|_K:  4.176e-04  alpha:  1.000e+00
	FillingsUpdate:  mu: -0.125435664  nElectrons: 171.000000
	SubspaceRotationAdjust: set factor to 1
ElecMinimize: Iter:   1  F: -792.972548894153533  |grad|_K:  1.065e-04  alpha:  2.921e-01  linmin:  2.404e-03  t[s]:     25.56
	FillingsUpdate:  mu: -0.280226913  nElectrons: 171.000000
	SubspaceRotationAdjust: set factor to 0.528
ElecMinimize: Iter:   2  F: -793.048110902222788  |grad|_K:  1.898e-04  alpha:  3.005e-01  linmin:  4.150e-05  t[s]:     27.38
	FillingsUpdate:  mu: -0.139119226  nElectrons: 171.000000
	SubspaceRotationAdjust: set factor to 0.517
ElecMinimize: Iter:   3  F: -793.062302230331397  |grad|_K:  4.445e-05  alpha:  1.704e-02  linmin: -6.222e-04  t[s]:     29.21
ElecMinimize: 	Predicted alpha/alphaT>3.000000, increasing alphaT to 5.111850e-02.
ElecMinimize: 	Predicted alpha/alphaT>3.000000, increasing alphaT to 1.533555e-01.
	FillingsUpdate:  mu: -0.030481443  nElectrons: 171.000000
	SubspaceRotationAdjust: set factor to 0.284
ElecMinimize: Iter:   4  F: -793.073064603881562  |grad|_K:  1.040e-04  alpha:  2.344e-01  linmin:  2.238e-05  t[s]:     32.23
	FillingsUpdate:  mu: -0.098102016  nElectrons: 171.000000
	SubspaceRotationAdjust: set factor to 0.598
ElecMinimize: Iter:   5  F: -793.087730828292479  |grad|_K:  4.180e-05  alpha:  6.028e-02  linmin: -1.038e-04  t[s]:     34.07
	FillingsUpdate:  mu: -0.190505712  nElectrons: 171.000000
	SubspaceRotationAdjust: set factor to 0.365
ElecMinimize: Iter:   6  F: -793.093299727015165  |grad|_K:  8.092e-05  alpha:  1.421e-01  linmin:  1.037e-04  t[s]:     35.90
	FillingsUpdate:  mu: -0.138532182  nElectrons: 171.000000

Dumping 'X.fillings' ... done
Dumping 'X.wfns' ... done
Dumping 'X.force' ... done
Dumping 'X.eigenvals' ... done
	SubspaceRotationAdjust: set factor to 0.261
ElecMinimize: Iter:   7  F: -793.110271738737424  |grad|_K:  3.865e-05  alpha:  1.174e-01  linmin:  2.915e-05  t[s]:     37.98
ElecMinimize: 	Predicted alpha/alphaT>3.000000, increasing alphaT to 3.520686e-01.
	FillingsUpdate:  mu: -0.088941525  nElectrons: 171.000000
	SubspaceRotationAdjust: set factor to 0.205
ElecMinimize: Iter:   8  F: -793.125062353683347  |grad|_K:  3.235e-05  alpha:  4.482e-01  linmin:  7.274e-05  t[s]:     40.35
	FillingsUpdate:  mu: -0.161649563  nElectrons: 171.000000
	SubspaceRotationAdjust: set factor to 0.136
ElecMinimize: Iter:   9  F: -793.132468021204318  |grad|_K:  3.964e-05  alpha:  3.191e-01  linmin:  3.519e-05  t[s]:     42.17
	FillingsUpdate:  mu: -0.110105650  nElectrons: 171.000000
	SubspaceRotationAdjust: set factor to 0.0892
	SubspaceRotationAdjust: resetting CG because factor has changed by 0.0891793
ElecMinimize: 	State modified externally: resetting search direction.
ElecMinimize: Iter:  10  F: -793.136516382583068  |grad|_K:  1.975e-05  alpha:  1.124e-01
ElecMinimize: 	Predicted alpha/alphaT>3.000000, increasing alphaT to 3.371408e-01.
	FillingsUpdate:  mu: -0.127289004  nElectrons: 171.000000
	SubspaceRotationAdjust: set factor to 0.208
ElecMinimize: Iter:  11  F: -793.139538403133884  |grad|_K:  1.346e-05  alpha:  3.483e-01  linmin:  9.519e-06  t[s]:     47.35
	FillingsUpdate:  mu: -0.092452363  nElectrons: 171.000000
	SubspaceRotationAdjust: set factor to 0.159
ElecMinimize: Iter:  12  F: -793.141587302687981  |grad|_K:  1.724e-05  alpha:  5.089e-01  linmin:  4.189e-05  t[s]:     49.17
	FillingsUpdate:  mu: -0.125445887  nElectrons: 171.000000
	SubspaceRotationAdjust: set factor to 0.0892
ElecMinimize: Iter:  13  F: -793.142534239268002  |grad|_K:  1.248e-05  alpha:  1.413e-01  linmin: -9.998e-05  t[s]:     50.99
ElecMinimize: 	Predicted alpha/alphaT>3.000000, increasing alphaT to 4.237765e-01.
	FillingsUpdate:  mu: -0.111900536  nElectrons: 171.000000
	SubspaceRotationAdjust: set factor to 0.077
ElecMinimize: Iter:  14  F: -793.144381447025353  |grad|_K:  1.023e-05  alpha:  5.269e-01  linmin:  1.321e-05  t[s]:     53.35
	FillingsUpdate:  mu: -0.116244214  nElectrons: 171.000000

Dumping 'X.fillings' ... done
Dumping 'X.wfns' ... done
Dumping 'X.force' ... done
Dumping 'X.eigenvals' ... done
	SubspaceRotationAdjust: set factor to 0.0778
ElecMinimize: Iter:  15  F: -793.145829756423495  |grad|_K:  9.845e-06  alpha:  6.231e-01  linmin:  1.640e-06  t[s]:     55.45
	FillingsUpdate:  mu: -0.117371444  nElectrons: 171.000000
	SubspaceRotationAdjust: set factor to 0.079
ElecMinimize: Iter:  16  F: -793.147167255569684  |grad|_K:  8.802e-06  alpha:  6.203e-01  linmin:  4.955e-06  t[s]:     57.30
	FillingsUpdate:  mu: -0.112229687  nElectrons: 171.000000
	SubspaceRotationAdjust: set factor to 0.0784
ElecMinimize: Iter:  17  F: -793.148084491828627  |grad|_K:  7.098e-06  alpha:  5.324e-01  linmin:  4.342e-06  t[s]:     59.11
	FillingsUpdate:  mu: -0.118224725  nElectrons: 171.000000
	SubspaceRotationAdjust: set factor to 0.0754
ElecMinimize: Iter:  18  F: -793.148567559961975  |grad|_K:  5.492e-06  alpha:  4.311e-01  linmin:  3.557e-06  t[s]:     60.93
	FillingsUpdate:  mu: -0.110993094  nElectrons: 171.000000
	SubspaceRotationAdjust: set factor to 0.0704
ElecMinimize: Iter:  19  F: -793.148930012574510  |grad|_K:  5.394e-06  alpha:  5.407e-01  linmin:  1.226e-05  t[s]:     62.75
	FillingsUpdate:  mu: -0.120331458  nElectrons: 171.000000
	SubspaceRotationAdjust: set factor to 0.0589
ElecMinimize: Iter:  20  F: -793.149258934010163  |grad|_K:  4.066e-06  alpha:  5.090e-01  linmin:  1.670e-05  t[s]:     64.56
	FillingsUpdate:  mu: -0.113126115  nElectrons: 171.000000
	SubspaceRotationAdjust: set factor to 0.0501
ElecMinimize: Iter:  21  F: -793.149394540492949  |grad|_K:  2.925e-06  alpha:  3.689e-01  linmin:  4.497e-06  t[s]:     66.37
	FillingsUpdate:  mu: -0.114748214  nElectrons: 171.000000
	SubspaceRotationAdjust: set factor to 0.0526
ElecMinimize: Iter:  22  F: -793.149510530325642  |grad|_K:  2.896e-06  alpha:  6.099e-01  linmin:  1.541e-05  t[s]:     68.19
	FillingsUpdate:  mu: -0.116941738  nElectrons: 171.000000

Dumping 'X.fillings' ... done
Dumping 'X.wfns' ... done
Dumping 'X.force' ... done
Dumping 'X.eigenvals' ... done
	SubspaceRotationAdjust: set factor to 0.0536
ElecMinimize: Iter:  23  F: -793.149606382652337  |grad|_K:  2.789e-06  alpha:  5.140e-01  linmin:  7.249e-06  t[s]:     70.29
	FillingsUpdate:  mu: -0.112911977  nElectrons: 171.000000
	SubspaceRotationAdjust: set factor to 0.0517
ElecMinimize: Iter:  24  F: -793.149709489243492  |grad|_K:  2.572e-06  alpha:  5.961e-01  linmin:  4.680e-05  t[s]:     72.11
	FillingsUpdate:  mu: -0.114841102  nElectrons: 171.000000
	SubspaceRotationAdjust: set factor to 0.0529
ElecMinimize: Iter:  25  F: -793.149792883952387  |grad|_K:  2.374e-06  alpha:  5.680e-01  linmin:  2.458e-05  t[s]:     73.92
	FillingsUpdate:  mu: -0.115706351  nElectrons: 171.000000
	SubspaceRotationAdjust: set factor to 0.0546
ElecMinimize: Iter:  26  F: -793.149864402753792  |grad|_K:  2.223e-06  alpha:  5.712e-01  linmin:  3.538e-05  t[s]:     75.74
	FillingsUpdate:  mu: -0.114369541  nElectrons: 171.000000
	SubspaceRotationAdjust: set factor to 0.0549
ElecMinimize: Iter:  27  F: -793.149919368642827  |grad|_K:  1.877e-06  alpha:  5.005e-01  linmin:  2.647e-05  t[s]:     77.55
	FillingsUpdate:  mu: -0.115644145  nElectrons: 171.000000
	SubspaceRotationAdjust: set factor to 0.0561
ElecMinimize: Iter:  28  F: -793.149953873264394  |grad|_K:  1.472e-06  alpha:  4.406e-01  linmin:  1.202e-05  t[s]:     79.36
	FillingsUpdate:  mu: -0.115643995  nElectrons: 171.000000
	SubspaceRotationAdjust: set factor to 0.0581
ElecMinimize: Iter:  29  F: -793.149983391062165  |grad|_K:  1.389e-06  alpha:  6.129e-01  linmin:  1.622e-05  t[s]:     81.18
	FillingsUpdate:  mu: -0.115188190  nElectrons: 171.000000
	SubspaceRotationAdjust: set factor to 0.0603
ElecMinimize: Iter:  30  F: -793.150004842626572  |grad|_K:  1.124e-06  alpha:  5.000e-01  linmin:  3.905e-06  t[s]:     82.99
	FillingsUpdate:  mu: -0.116016226  nElectrons: 171.000000

Dumping 'X.fillings' ... done
Dumping 'X.wfns' ... done
Dumping 'X.force' ... done
Dumping 'X.eigenvals' ... done
	SubspaceRotationAdjust: set factor to 0.0613
ElecMinimize: Iter:  31  F: -793.150018194583595  |grad|_K:  1.028e-06  alpha:  4.749e-01  linmin:  3.326e-06  t[s]:     85.07
	FillingsUpdate:  mu: -0.115350373  nElectrons: 171.000000
	SubspaceRotationAdjust: set factor to 0.063
ElecMinimize: Iter:  32  F: -793.150031979868231  |grad|_K:  9.803e-07  alpha:  5.860e-01  linmin:  4.043e-06  t[s]:     86.88
	FillingsUpdate:  mu: -0.115527339  nElectrons: 171.000000
	SubspaceRotationAdjust: set factor to 0.0651
ElecMinimize: Iter:  33  F: -793.150044775479614  |grad|_K:  9.662e-07  alpha:  5.986e-01  linmin:  4.052e-06  t[s]:     88.70
	FillingsUpdate:  mu: -0.115886171  nElectrons: 171.000000
	SubspaceRotationAdjust: set factor to 0.067
ElecMinimize: Iter:  34  F: -793.150055488947828  |grad|_K:  8.172e-07  alpha:  5.160e-01  linmin:  1.665e-06  t[s]:     90.51
	FillingsUpdate:  mu: -0.115124990  nElectrons: 171.000000
	SubspaceRotationAdjust: set factor to 0.0668
ElecMinimize: Iter:  35  F: -793.150062886222372  |grad|_K:  7.428e-07  alpha:  4.979e-01  linmin:  7.639e-07  t[s]:     92.32
	FillingsUpdate:  mu: -0.115782918  nElectrons: 171.000000
	SubspaceRotationAdjust: set factor to 0.0657
ElecMinimize: Iter:  36  F: -793.150069123487583  |grad|_K:  6.404e-07  alpha:  5.082e-01  linmin:  5.014e-06  t[s]:     94.13
	FillingsUpdate:  mu: -0.115213160  nElectrons: 171.000000
	SubspaceRotationAdjust: set factor to 0.0657
ElecMinimize: Iter:  37  F: -793.150073822430954  |grad|_K:  5.518e-07  alpha:  5.155e-01  linmin:  2.388e-06  t[s]:     95.95
	FillingsUpdate:  mu: -0.115482195  nElectrons: 171.000000
	SubspaceRotationAdjust: set factor to 0.0672
ElecMinimize: Iter:  38  F: -793.150077335259311  |grad|_K:  5.213e-07  alpha:  5.189e-01  linmin:  4.172e-06  t[s]:     97.77
	FillingsUpdate:  mu: -0.115438347  nElectrons: 171.000000

Dumping 'X.fillings' ... done
Dumping 'X.wfns' ... done
Dumping 'X.force' ... done
Dumping 'X.eigenvals' ... done
	SubspaceRotationAdjust: set factor to 0.0695
ElecMinimize: Iter:  39  F: -793.150080831571586  |grad|_K:  4.950e-07  alpha:  5.786e-01  linmin:  2.196e-06  t[s]:     99.87
	FillingsUpdate:  mu: -0.115272202  nElectrons: 171.000000
	SubspaceRotationAdjust: set factor to 0.0715
ElecMinimize: Iter:  40  F: -793.150083547390068  |grad|_K:  4.382e-07  alpha:  4.983e-01  linmin:  3.976e-07  t[s]:    101.68
	FillingsUpdate:  mu: -0.115588343  nElectrons: 171.000000
	SubspaceRotationAdjust: set factor to 0.0718
ElecMinimize: Iter:  41  F: -793.150086008271728  |grad|_K:  4.373e-07  alpha:  5.764e-01  linmin:  2.948e-06  t[s]:    103.50
	FillingsUpdate:  mu: -0.115060527  nElectrons: 171.000000
	SubspaceRotationAdjust: set factor to 0.0689
ElecMinimize: Iter:  42  F: -793.150088315162407  |grad|_K:  4.103e-07  alpha:  5.423e-01  linmin:  4.335e-06  t[s]:    105.31
	FillingsUpdate:  mu: -0.115623607  nElectrons: 171.000000
	SubspaceRotationAdjust: set factor to 0.0637
ElecMinimize: Iter:  43  F: -793.150090131682532  |grad|_K:  3.701e-07  alpha:  4.853e-01  linmin:  3.636e-06  t[s]:    107.13
	FillingsUpdate:  mu: -0.115224317  nElectrons: 171.000000
	SubspaceRotationAdjust: set factor to 0.0616
ElecMinimize: Iter:  44  F: -793.150091549774515  |grad|_K:  2.989e-07  alpha:  4.654e-01  linmin:  6.144e-06  t[s]:    108.94
	FillingsUpdate:  mu: -0.115364506  nElectrons: 171.000000
	SubspaceRotationAdjust: set factor to 0.0645
ElecMinimize: Iter:  45  F: -793.150092560682651  |grad|_K:  2.621e-07  alpha:  5.081e-01  linmin: -1.308e-05  t[s]:    110.76
	FillingsUpdate:  mu: -0.115477279  nElectrons: 171.000000
	SubspaceRotationAdjust: set factor to 0.068
ElecMinimize: Iter:  46  F: -793.150093341112324  |grad|_K:  2.267e-07  alpha:  5.096e-01  linmin: -1.567e-05  t[s]:    112.57
	FillingsUpdate:  mu: -0.115282893  nElectrons: 171.000000

Dumping 'X.fillings' ... done
Dumping 'X.wfns' ... done
Dumping 'X.force' ... done
Dumping 'X.eigenvals' ... done
	SubspaceRotationAdjust: set factor to 0.0695
ElecMinimize: Iter:  47  F: -793.150093878777739  |grad|_K:  1.953e-07  alpha:  4.695e-01  linmin:  7.523e-06  t[s]:    114.65
ElecMinimize: Converged (|Delta F|<1.000000e-06 for 2 iters).
Setting wave functions to eigenvectors of Hamiltonian

# Ionic positions in lattice coordinates:
ion Na   0.000000000000000   0.000000000000000   0.194180000000000 1
ion Na   0.500000000000000   0.500000000000000   0.228160000000000 1
ion Na   0.000000000000000   0.000000000000000   0.262140000000000 1
ion Na   0.500000000000000   0.500000000000000   0.296120000000000 1
ion Na   0.000000000000000   0.000000000000000   0.330100000000000 1
ion Na   0.500000000000000   0.500000000000000   0.364080000000000 1
ion Na   0.000000000000000   0.000000000000000   0.398060000000000 1
ion Na   0.500000000000000   0.500000000000000   0.432040000000000 1
ion Na   0.000000000000000   0.000000000000000   0.466020000000000 1
ion Na   0.500000000000000   0.500000000000000   0.500000000000000 1
ion Na   0.000000000000000   0.000000000000000   0.533980000000000 1
ion Na   0.500000000000000   0.500000000000000   0.567960000000000 1
ion Na   0.000000000000000   0.000000000000000   0.601940000000000 1
ion Na   0.500000000000000   0.500000000000000   0.635920000000000 1
ion Na   0.000000000000000   0.000000000000000   0.669900000000000 1
ion Na   0.500000000000000   0.500000000000000   0.703880000000000 1
ion Na   0.000000000000000   0.000000000000000   0.737860000000000 1
ion Na   0.500000000000000   0.500000000000000   0.771840000000000 1
ion Na   0.000000000000000   0.000000000000000   0.805820000000000 1

# Forces in Lattice coordinates:
force Na   0.000000000000000  -0.000000000000000   0.090252496179019 1
force Na  -0.000000000000000   0.000000000000000   0.000868084920714 1
force Na   0.000000000000000  -0.000000000000000   0.036043096754695 1
force Na   0.000000000000000   0.000000000000000   0.025049667828859 1
force Na  -0.000000000000000   0.000000000000000   0.019506275523791 1
force Na   0.000000000000000  -0.000000000000000   0.047275723627621 1
force Na   0.000000000000000  -0.000000000000000   0.007932417537808 1
force Na   0.000000000000000   0.000000000000000   0.040080924050770 1
force Na  -0.000000000000000   0.000000000000000   0.001940635299589 1
force Na   0.000000000000000  -0.000000000000000   0.000000000000000 1
force Na  -0.000000000000000   0.000000000000000  -0.001940635300044 1
force Na   0.000000000000000  -0.000000000000000  -0.040080924050315 1
force Na   0.000000000000000   0.000000000000000  -0.007932417535989 1
force Na   0.000000000000000   0.000000000000000  -0.047275723627621 1
force Na   0.000000000000000  -0.000000000000000  -0.019506275521972 1
force Na   0.000000000000000   0.000000000000000  -0.025049667828859 1
force Na   0.000000000000000   0.000000000000000  -0.036043096752876 1
force Na   0.000000000000000   0.000000000000000  -0.000868084920714 1
force Na  -0.000000000000000   0.000000000000000  -0.090252496179018 1

# Energy components:
   Eewald =   -36952.9708873334384407
       EH =   -36338.5414216374483658
     Eloc =    72453.6228468533081468
      Enl =     -219.4353313260258176
   Epulay =       -0.0070975512916910
      Exc =     -113.5890075249548801
       KE =      377.8395787086599853
-------------------------------------
     Etot =     -793.0813198111839029
       TS =        0.0687740675938424
-------------------------------------
        F =     -793.1500938787777386

IonicMinimize: Iter:   0  F: -793.150093878777739  |grad|_K:  1.922e-04  t[s]:    115.00
IonicMinimize: None of the convergence criteria satisfied after 0 iterations.

#--- Lowdin population analysis ---
# oxidation-state Na +0.070 +0.045 +0.038 +0.049 +0.045 +0.046 +0.047 +0.047 +0.048 +0.048 +0.048 +0.047 +0.047 +0.046 +0.045 +0.049 +0.038 +0.045 +0.070


Dumping 'X.fillings' ... done
Dumping 'X.wfns' ... done
Dumping 'X.ionpos' ... done
Dumping 'X.lattice' ... done
Dumping 'X.n' ... done
Dumping 'X.eigenvals' ... done
Dumping 'X.eigStats' ... 
	eMin: -2.309539 at state 1 ( [ +0.000000 +0.090909 +0.000000 ] spin 0 )
	HOMO: -0.115532 at state 17 ( [ +0.272727 +0.454545 +0.000000 ] spin 0 )
	mu  : -0.115283
	LUMO: -0.114267 at state 9 ( [ +0.090909 +0.363636 +0.000000 ] spin 0 )
	eMax: +0.000644 at state 6 ( [ +0.090909 +0.090909 +0.000000 ] spin 0 )
	HOMO-LUMO gap: +0.001265
	Optical gap  : +0.004026 at state 17 ( [ +0.272727 +0.454545 +0.000000 ] spin 0 )
Dumping 'X.dos' ... done.
End date and time: Thu Nov  9 01:26:53 2023  (Duration: 0-0:01:55.38)
Done!

*************** JDFTx 1.7.0  ***************

Start date and time: Thu Nov  9 01:26:55 2023
Executable jdftx with command-line: -m -i X.in -o X.out
Running on hosts (process indices):  ac0735 (0-20)
Divided in process groups (process indices):  0 (0)  1 (1)  2 (2)  3 (3)  4 (4)  5 (5)  6 (6)  7 (7)  8 (8)  9 (9)  10 (10)  11 (11)  12 (12)  13 (13)  14 (14)  15 (15)  16 (16)  17 (17)  18 (18)  19 (19)  20 (20)
Resource initialization completed at t[s]:      0.03
Run totals: 21 processes, 21 threads, 0 GPUs


Input parsed successfully to the following command list (including defaults):

basis kpoint-dependent
cache-projectors no
coords-type Lattice
core-overlap-check vector
coulomb-interaction Slab 001
coulomb-truncation-embed 0 0 0.5
davidson-band-ratio 1.1
density-of-states Etol 1.000000e-06 Esigma 0.000000e+00 \
		Complete \
	Total \
		Occupied \
	Total
dump End State IonicPositions Lattice ElecDensity CoreDensity EigStats DOS
dump Electronic State Forces
dump Ionic State IonicPositions Forces Lattice DOS
dump-interval Electronic 8
dump-interval Ionic 4
dump-name X.$var
elec-cutoff 20
elec-eigen-algo Davidson
elec-ex-corr gga-PBE
elec-smearing Fermi 0.0095
electronic-minimize  \
	dirUpdateScheme      FletcherReeves \
	linminMethod         DirUpdateRecommended \
	nIterations          2000 \
	history              15 \
	knormThreshold       0 \
	energyDiffThreshold  1e-07 \
	nEnergyDiff          2 \
	alphaTstart          1 \
	alphaTmin            1e-10 \
	updateTestStepSize   yes \
	alphaTreduceFactor   0.1 \
	alphaTincreaseFactor 3 \
	nAlphaAdjustMax      3 \
	wolfeEnergy          0.0001 \
	wolfeGradient        0.9 \
	fdTest               no
exchange-regularization WignerSeitzTruncated
fluid None
fluid-ex-corr (null) lda-PZ
fluid-gummel-loop 10 1.000000e-05
fluid-minimize  \
	dirUpdateScheme      PolakRibiere \
	linminMethod         DirUpdateRecommended \
	nIterations          100 \
	history              15 \
	knormThreshold       0 \
	energyDiffThreshold  0 \
	nEnergyDiff          2 \
	alphaTstart          1 \
	alphaTmin            1e-10 \
	updateTestStepSize   yes \
	alphaTreduceFactor   0.1 \
	alphaTincreaseFactor 3 \
	nAlphaAdjustMax      3 \
	wolfeEnergy          0.0001 \
	wolfeGradient        0.9 \
	fdTest               no
fluid-solvent H2O 55.338 ScalarEOS \
	epsBulk 78.4 \
	pMol 0.92466 \
	epsInf 1.77 \
	Pvap 1.06736e-10 \
	sigmaBulk 4.62e-05 \
	Rvdw 2.61727 \
	Res 1.42 \
	tauNuc 343133 \
	poleEl 15 7 1
forces-output-coords Positions
ion Na   0.000000000000000   0.000000000000000   0.194180000000000 1
ion Na   0.500000000000000   0.500000000000000   0.228160000000000 1
ion Na   0.000000000000000   0.000000000000000   0.262140000000000 1
ion Na   0.500000000000000   0.500000000000000   0.296120000000000 1
ion Na   0.000000000000000   0.000000000000000   0.330100000000000 1
ion Na   0.500000000000000   0.500000000000000   0.364080000000000 1
ion Na   0.000000000000000   0.000000000000000   0.398060000000000 1
ion Na   0.500000000000000   0.500000000000000   0.432040000000000 1
ion Na   0.000000000000000   0.000000000000000   0.466020000000000 1
ion Na   0.500000000000000   0.500000000000000   0.500000000000000 1
ion Na   0.000000000000000   0.000000000000000   0.533980000000000 1
ion Na   0.500000000000000   0.500000000000000   0.567960000000000 1
ion Na   0.000000000000000   0.000000000000000   0.601940000000000 1
ion Na   0.500000000000000   0.500000000000000   0.635920000000000 1
ion Na   0.000000000000000   0.000000000000000   0.669900000000000 1
ion Na   0.500000000000000   0.500000000000000   0.703880000000000 1
ion Na   0.000000000000000   0.000000000000000   0.737860000000000 1
ion Na   0.500000000000000   0.500000000000000   0.771840000000000 1
ion Na   0.000000000000000   0.000000000000000   0.805820000000000 1
ion-species SG15/$ID_ONCV_PBE.upf
ion-width 0
ionic-minimize  \
	dirUpdateScheme      L-BFGS \
	linminMethod         DirUpdateRecommended \
	nIterations          0 \
	history              15 \
	knormThreshold       0.0001 \
	energyDiffThreshold  1e-06 \
	nEnergyDiff          2 \
	alphaTstart          1 \
	alphaTmin            1e-10 \
	updateTestStepSize   yes \
	alphaTreduceFactor   0.1 \
	alphaTincreaseFactor 3 \
	nAlphaAdjustMax      3 \
	wolfeEnergy          0.0001 \
	wolfeGradient        0.9 \
	fdTest               no
kpoint   0.000000000000   0.000000000000   0.000000000000  1.00000000000000
kpoint-folding 11 11 1 
latt-move-scale 1 1 1
latt-scale 1 1 1 
lattice  \
	   7.936714821600003   -0.000000000000000   -0.000000000000000  \
	   0.000000000000000    7.936714821600003   -0.000000000000000  \
	   0.000000000000000    0.000000000000000  116.783991189000005 
lattice-minimize  \
	dirUpdateScheme      L-BFGS \
	linminMethod         DirUpdateRecommended \
	nIterations          0 \
	history              15 \
	knormThreshold       0 \
	energyDiffThreshold  1e-06 \
	nEnergyDiff          2 \
	alphaTstart          1 \
	alphaTmin            1e-10 \
	updateTestStepSize   yes \
	alphaTreduceFactor   0.1 \
	alphaTincreaseFactor 3 \
	nAlphaAdjustMax      3 \
	wolfeEnergy          0.0001 \
	wolfeGradient        0.9 \
	fdTest               no
lcao-params -1 1e-06 0.0095
pcm-variant GLSSA13
spintype no-spin
subspace-rotation-factor 1 yes
symmetries automatic
symmetry-threshold 0.0001
wavefunction read X.wfns 95 10.000000



---------- Setting up symmetries ----------

Found 16 point-group symmetries of the bravais lattice
Found 16 space-group symmetries with basis
Applied RMS atom displacement 0 bohrs to make symmetries exact.

---------- Initializing the Grid ----------
R = 
[      7.93671            0            0  ]
[            0      7.93671            0  ]
[            0            0      116.784  ]
unit cell volume = 7356.39
G =
[   0.791661          0          0  ]
[         -0   0.791661          0  ]
[          0         -0  0.0538018  ]
Minimum fftbox size, Smin = [  32  32  472  ]
Chosen fftbox size, S = [  32  32  480  ]

---------- Exchange Correlation functional ----------
Initalized PBE GGA exchange.
Initalized PBE GGA correlation.

---------- Setting up pseudopotentials ----------
Width of ionic core gaussian charges (only for fluid interactions / plotting) set to 0

Reading pseudopotential file '/net/software/testing/software/jdftx/1.7.0-foss-2021b-mkl/share/jdftx/pseudopotentials/SG15/Na_ONCV_PBE.upf':
  'Na' pseudopotential, 'PBE' functional
  Generated using ONCVPSP code by D. R. Hamann
  Author: Martin Schlipf and Francois Gygi  Date: 150915.
  9 valence electrons, 3 orbitals, 4 projectors, 1992 radial grid points, with lMax = 1
  Transforming local potential to a uniform radial grid of dG=0.02 with 1110 points.
  Transforming nonlocal projectors to a uniform radial grid of dG=0.02 with 432 points.
    2S    l: 0   occupation:  2.0   eigenvalue: -2.085640
    2P    l: 1   occupation:  6.0   eigenvalue: -1.053708
    3S    l: 0   occupation:  1.0   eigenvalue: -0.100838
  Transforming atomic orbitals to a uniform radial grid of dG=0.02 with 432 points.
  Core radius for overlap checks: 2.01 bohrs.
  Reading pulay file /net/software/testing/software/jdftx/1.7.0-foss-2021b-mkl/share/jdftx/pseudopotentials/SG15/Na_ONCV_PBE.pulay ... using dE_dnG = -2.946487e-03 computed for Ecut = 20.

Initialized 1 species with 19 total atoms.

Folded 1 k-points by 11x11x1 to 121 k-points.

---------- Setting up k-points, bands, fillings ----------
Reduced to 21 k-points under symmetry. 
Computing the number of bands and number of electrons
Calculating initial fillings.
nElectrons: 171.000000   nBands: 95   nStates: 21

----- Setting up reduced wavefunction bases (one per k-point) -----
average nbasis = 31424.983 , ideal nbasis = 31427.067

----- Initializing Supercell corresponding to k-point mesh -----
Lattice vector linear combinations in supercell:
[  11   0   0  ]
[   0  11   0  ]
[   0   0   1  ]
Supercell lattice vectors:
[  87.3039  0  0  ]
[  0  87.3039  0  ]
[  0  0  116.784  ]

---------- Setting up coulomb interaction ----------
Setting up double-sized grid for truncated Coulomb potentials:
R = 
[      7.93671            0            0  ]
[            0      7.93671            0  ]
[            0            0      233.568  ]
unit cell volume = 14712.8
G =
[   0.791661          0          0  ]
[         -0   0.791661          0  ]
[          0         -0  0.0269009  ]
Chosen fftbox size, S = [  32  32  960  ]
Integer grid location selected as the embedding center:
   Grid: [  0  0  240  ]
   Lattice: [  0  0  0.5  ]
   Cartesian: [  0  0  58.392  ]
Constructing Wigner-Seitz cell: 6 faces (6 quadrilaterals, 0 hexagons)
Range-separation parameter for embedded mesh potentials due to point charges: 0.628283 bohrs.
Initialized slab truncation along lattice direction 001

---------- Setting up 2D ewald sum ----------
Optimum gaussian width for ewald sums = 4.734710 bohr.
Real space sums over 225 unit cells with max indices [  7  7  0  ]
Reciprocal space sums over 81 terms with max indices [  4  4  0  ]

---------- Allocating electronic variables ----------
Initializing wave functions:  reading from 'X.wfns'


---- Citations for features of the code used in this run ----

   Software package:
      R. Sundararaman, K. Letchworth-Weaver, K.A. Schwarz, D. Gunceler, Y. Ozhabes and T.A. Arias, 'JDFTx: software for joint density-functional theory', SoftwareX 6, 278 (2017)

   gga-PBE exchange-correlation functional:
      J.P. Perdew, K. Burke and M. Ernzerhof, Phys. Rev. Lett. 77, 3865 (1996)

   Pseudopotentials:
      M Schlipf and F Gygi, Comput. Phys. Commun. 196, 36 (2015)

   Truncated Coulomb potentials:
      R. Sundararaman and T.A. Arias, Phys. Rev. B 87, 165122 (2013)

   Total energy minimization with Auxiliary Hamiltonian:
      C. Freysoldt, S. Boeck, and J. Neugebauer, Phys. Rev. B 79, 241103(R) (2009)

   Linear-tetrahedron sampling for density of states:
      G. Lehmann and M. Taut, Phys. status solidi (b) 54, 469 (1972)

This list may not be complete. Please suggest additional citations or
report any other bugs at https://github.com/shankar1729/jdftx/issues

Initialization completed successfully at t[s]:      1.13


Setting the auxilliary hamiltonian equal to the subspace hamiltonian.

-------- Electronic minimization -----------
	FillingsUpdate:  mu: -0.110471292  nElectrons: 171.000000
ElecMinimize: Iter:   0  F: -793.108425948999525  |grad|_K:  9.654e-04  alpha:  1.000e+00
	FillingsUpdate:  mu: -0.300261664  nElectrons: 171.000000
	SubspaceRotationAdjust: set factor to 0.988
ElecMinimize: Iter:   1  F: -807.738833745930719  |grad|_K:  3.279e-04  alpha:  2.742e-01  linmin:  6.921e-03  t[s]:     14.83
	FillingsUpdate:  mu: +0.408146012  nElectrons: 171.000000
	SubspaceRotationAdjust: set factor to 0.683
ElecMinimize: Iter:   2  F: -808.140163814733455  |grad|_K:  4.508e-04  alpha:  6.132e-02  linmin: -3.313e-04  t[s]:     21.15
	FillingsUpdate:  mu: -0.280177295  nElectrons: 171.000000
	SubspaceRotationAdjust: set factor to 0.266
ElecMinimize: Iter:   3  F: -809.208472540336174  |grad|_K:  1.554e-04  alpha:  8.074e-02  linmin:  2.142e-03  t[s]:     27.46
	FillingsUpdate:  mu: -0.036022837  nElectrons: 171.000000
	SubspaceRotationAdjust: set factor to 0.125
	SubspaceRotationAdjust: resetting CG because factor has changed by 0.125454
ElecMinimize: 	State modified externally: resetting search direction.
ElecMinimize: Iter:   4  F: -809.254873558502709  |grad|_K:  5.836e-05  alpha:  3.073e-02
ElecMinimize: 	Predicted alpha/alphaT>3.000000, increasing alphaT to 9.218363e-02.
ElecMinimize: 	Predicted alpha/alphaT>3.000000, increasing alphaT to 2.765509e-01.
	FillingsUpdate:  mu: -0.160252097  nElectrons: 171.000000
	SubspaceRotationAdjust: set factor to 0.163
ElecMinimize: Iter:   5  F: -809.316390118318054  |grad|_K:  3.216e-05  alpha:  2.879e-01  linmin:  9.405e-05  t[s]:     47.49
	FillingsUpdate:  mu: -0.052478569  nElectrons: 171.000000
	SubspaceRotationAdjust: set factor to 0.102
ElecMinimize: Iter:   6  F: -809.332037562811820  |grad|_K:  2.058e-05  alpha:  2.409e-01  linmin:  7.800e-05  t[s]:     53.87
	FillingsUpdate:  mu: -0.119042203  nElectrons: 171.000000

Dumping 'X.fillings' ... done
Dumping 'X.wfns' ... done
Dumping 'X.force' ... done
Dumping 'X.eigenvals' ... done
	SubspaceRotationAdjust: set factor to 0.0619
ElecMinimize: Iter:   7  F: -809.337636706419971  |grad|_K:  1.119e-05  alpha:  2.108e-01  linmin:  8.234e-05  t[s]:     60.84
	FillingsUpdate:  mu: -0.089996865  nElectrons: 171.000000
	SubspaceRotationAdjust: set factor to 0.0648
ElecMinimize: Iter:   8  F: -809.341779772251471  |grad|_K:  1.032e-05  alpha:  5.312e-01  linmin:  3.877e-05  t[s]:     67.23
	FillingsUpdate:  mu: -0.084583316  nElectrons: 171.000000
	SubspaceRotationAdjust: set factor to 0.0745
ElecMinimize: Iter:   9  F: -809.346916432341800  |grad|_K:  1.047e-05  alpha:  7.732e-01  linmin:  8.439e-06  t[s]:     73.62
	FillingsUpdate:  mu: -0.121210428  nElectrons: 171.000000
	SubspaceRotationAdjust: set factor to 0.0702
ElecMinimize: Iter:  10  F: -809.350671312275836  |grad|_K:  1.019e-05  alpha:  5.405e-01  linmin:  7.691e-06  t[s]:     80.00
	FillingsUpdate:  mu: -0.091266152  nElectrons: 171.000000
	SubspaceRotationAdjust: set factor to 0.0652
ElecMinimize: Iter:  11  F: -809.354387525562288  |grad|_K:  9.143e-06  alpha:  5.718e-01  linmin:  5.694e-05  t[s]:     86.40
	FillingsUpdate:  mu: -0.111778707  nElectrons: 171.000000
	SubspaceRotationAdjust: set factor to 0.0651
ElecMinimize: Iter:  12  F: -809.357183310774531  |grad|_K:  8.260e-06  alpha:  5.386e-01  linmin:  7.066e-05  t[s]:     92.82
	FillingsUpdate:  mu: -0.106979731  nElectrons: 171.000000
	SubspaceRotationAdjust: set factor to 0.0676
ElecMinimize: Iter:  13  F: -809.359801416453251  |grad|_K:  7.471e-06  alpha:  6.249e-01  linmin:  7.884e-05  t[s]:     99.21
	FillingsUpdate:  mu: -0.103650085  nElectrons: 171.000000
	SubspaceRotationAdjust: set factor to 0.0688
ElecMinimize: Iter:  14  F: -809.361306069415150  |grad|_K:  5.510e-06  alpha:  4.356e-01  linmin:  4.194e-06  t[s]:    105.61
	FillingsUpdate:  mu: -0.111251723  nElectrons: 171.000000

Dumping 'X.fillings' ... done
Dumping 'X.wfns' ... done
Dumping 'X.force' ... done
Dumping 'X.eigenvals' ... done
	SubspaceRotationAdjust: set factor to 0.0658
ElecMinimize: Iter:  15  F: -809.362186826210973  |grad|_K:  4.436e-06  alpha:  4.629e-01  linmin:  4.012e-05  t[s]:    112.75
	FillingsUpdate:  mu: -0.099214107  nElectrons: 171.000000
	SubspaceRotationAdjust: set factor to 0.0564
ElecMinimize: Iter:  16  F: -809.362671029134162  |grad|_K:  3.319e-06  alpha:  3.943e-01  linmin:  9.190e-06  t[s]:    119.14
	FillingsUpdate:  mu: -0.105954680  nElectrons: 171.000000
	SubspaceRotationAdjust: set factor to 0.0498
ElecMinimize: Iter:  17  F: -809.362981110399460  |grad|_K:  2.759e-06  alpha:  4.493e-01  linmin:  2.574e-05  t[s]:    125.55
	FillingsUpdate:  mu: -0.102532593  nElectrons: 171.000000
	SubspaceRotationAdjust: set factor to 0.0525
ElecMinimize: Iter:  18  F: -809.363196287466963  |grad|_K:  2.053e-06  alpha:  4.516e-01  linmin:  1.901e-06  t[s]:    131.94
	FillingsUpdate:  mu: -0.098826854  nElectrons: 171.000000
	SubspaceRotationAdjust: set factor to 0.0526
ElecMinimize: Iter:  19  F: -809.363313020963687  |grad|_K:  1.714e-06  alpha:  4.414e-01  linmin:  2.140e-06  t[s]:    138.33
	FillingsUpdate:  mu: -0.102451875  nElectrons: 171.000000
	SubspaceRotationAdjust: set factor to 0.0512
ElecMinimize: Iter:  20  F: -809.363398517598398  |grad|_K:  1.332e-06  alpha:  4.636e-01  linmin:  8.600e-06  t[s]:    144.72
	FillingsUpdate:  mu: -0.101315335  nElectrons: 171.000000
	SubspaceRotationAdjust: set factor to 0.0574
ElecMinimize: Iter:  21  F: -809.363450936213212  |grad|_K:  1.120e-06  alpha:  4.712e-01  linmin:  5.714e-07  t[s]:    151.11
	FillingsUpdate:  mu: -0.099835031  nElectrons: 171.000000
	SubspaceRotationAdjust: set factor to 0.0632
ElecMinimize: Iter:  22  F: -809.363492713891333  |grad|_K:  1.051e-06  alpha:  5.312e-01  linmin: -1.806e-06  t[s]:    157.50
	FillingsUpdate:  mu: -0.102032490  nElectrons: 171.000000

Dumping 'X.fillings' ... done
Dumping 'X.wfns' ... done
Dumping 'X.force' ... done
Dumping 'X.eigenvals' ... done
	SubspaceRotationAdjust: set factor to 0.0675
ElecMinimize: Iter:  23  F: -809.363524979120712  |grad|_K:  9.337e-07  alpha:  4.651e-01  linmin: -1.008e-06  t[s]:    164.61
	FillingsUpdate:  mu: -0.100555765  nElectrons: 171.000000
	SubspaceRotationAdjust: set factor to 0.0748
ElecMinimize: Iter:  24  F: -809.363554896282267  |grad|_K:  9.116e-07  alpha:  5.468e-01  linmin: -2.340e-06  t[s]:    171.00
	FillingsUpdate:  mu: -0.101361695  nElectrons: 171.000000
	SubspaceRotationAdjust: set factor to 0.0858
ElecMinimize: Iter:  25  F: -809.363581845909152  |grad|_K:  8.423e-07  alpha:  5.168e-01  linmin: -9.229e-07  t[s]:    177.41
	FillingsUpdate:  mu: -0.101369219  nElectrons: 171.000000
	SubspaceRotationAdjust: set factor to 0.097
ElecMinimize: Iter:  26  F: -809.363606351740259  |grad|_K:  8.460e-07  alpha:  5.504e-01  linmin: -1.931e-06  t[s]:    183.80
	FillingsUpdate:  mu: -0.100615251  nElectrons: 171.000000
	SubspaceRotationAdjust: set factor to 0.106
ElecMinimize: Iter:  27  F: -809.363630365313156  |grad|_K:  8.119e-07  alpha:  5.346e-01  linmin: -3.127e-06  t[s]:    190.21
	FillingsUpdate:  mu: -0.102820165  nElectrons: 171.000000
	SubspaceRotationAdjust: set factor to 0.0982
ElecMinimize: Iter:  28  F: -809.363648983324424  |grad|_K:  8.610e-07  alpha:  4.500e-01  linmin: -1.522e-06  t[s]:    196.51
	FillingsUpdate:  mu: -0.099704948  nElectrons: 171.000000
	SubspaceRotationAdjust: set factor to 0.0717
ElecMinimize: Iter:  29  F: -809.363662236812388  |grad|_K:  8.013e-07  alpha:  2.853e-01  linmin:  1.384e-06  t[s]:    202.81
	FillingsUpdate:  mu: -0.101439727  nElectrons: 171.000000
	SubspaceRotationAdjust: set factor to 0.0656
ElecMinimize: Iter:  30  F: -809.363676220527736  |grad|_K:  6.108e-07  alpha:  3.471e-01  linmin: -3.208e-06  t[s]:    209.11
	FillingsUpdate:  mu: -0.101809544  nElectrons: 171.000000

Dumping 'X.fillings' ... done
Dumping 'X.wfns' ... done
Dumping 'X.force' ... done
Dumping 'X.eigenvals' ... done
	SubspaceRotationAdjust: set factor to 0.0688
ElecMinimize: Iter:  31  F: -809.363687416811899  |grad|_K:  5.622e-07  alpha:  4.779e-01  linmin: -2.074e-06  t[s]:    216.17
	FillingsUpdate:  mu: -0.100352722  nElectrons: 171.000000
	SubspaceRotationAdjust: set factor to 0.0599
ElecMinimize: Iter:  32  F: -809.363695647921304  |grad|_K:  4.930e-07  alpha:  4.150e-01  linmin: -2.649e-06  t[s]:    222.47
	FillingsUpdate:  mu: -0.101640608  nElectrons: 171.000000
	SubspaceRotationAdjust: set factor to 0.0537
ElecMinimize: Iter:  33  F: -809.363701695281861  |grad|_K:  4.141e-07  alpha:  3.964e-01  linmin: -8.685e-07  t[s]:    228.78
	FillingsUpdate:  mu: -0.101594474  nElectrons: 171.000000
	SubspaceRotationAdjust: set factor to 0.0573
ElecMinimize: Iter:  34  F: -809.363706613781119  |grad|_K:  3.658e-07  alpha:  4.571e-01  linmin: -4.985e-07  t[s]:    235.13
	FillingsUpdate:  mu: -0.100947972  nElectrons: 171.000000
	SubspaceRotationAdjust: set factor to 0.0563
ElecMinimize: Iter:  35  F: -809.363710196243574  |grad|_K:  3.105e-07  alpha:  4.268e-01  linmin: -5.586e-06  t[s]:    241.52
	FillingsUpdate:  mu: -0.101574169  nElectrons: 171.000000
	SubspaceRotationAdjust: set factor to 0.0566
ElecMinimize: Iter:  36  F: -809.363712899063785  |grad|_K:  2.758e-07  alpha:  4.464e-01  linmin: -9.545e-06  t[s]:    247.92
	FillingsUpdate:  mu: -0.101478000  nElectrons: 171.000000
	SubspaceRotationAdjust: set factor to 0.0633
ElecMinimize: Iter:  37  F: -809.363715126718944  |grad|_K:  2.484e-07  alpha:  4.667e-01  linmin:  7.758e-06  t[s]:    254.32
	FillingsUpdate:  mu: -0.101042622  nElectrons: 171.000000
	SubspaceRotationAdjust: set factor to 0.0678
ElecMinimize: Iter:  38  F: -809.363716940251152  |grad|_K:  2.417e-07  alpha:  4.685e-01  linmin: -2.302e-06  t[s]:    260.72
	FillingsUpdate:  mu: -0.101607966  nElectrons: 171.000000

Dumping 'X.fillings' ... done
Dumping 'X.wfns' ... done
Dumping 'X.force' ... done
Dumping 'X.eigenvals' ... done
	SubspaceRotationAdjust: set factor to 0.0701
ElecMinimize: Iter:  39  F: -809.363718756152025  |grad|_K:  2.404e-07  alpha:  4.949e-01  linmin: -1.794e-05  t[s]:    267.79
	FillingsUpdate:  mu: -0.101236048  nElectrons: 171.000000
	SubspaceRotationAdjust: set factor to 0.0771
ElecMinimize: Iter:  40  F: -809.363720623528707  |grad|_K:  2.467e-07  alpha:  5.139e-01  linmin: -2.867e-05  t[s]:    274.18
	FillingsUpdate:  mu: -0.101126306  nElectrons: 171.000000
	SubspaceRotationAdjust: set factor to 0.086
ElecMinimize: Iter:  41  F: -809.363722941178594  |grad|_K:  2.855e-07  alpha:  6.048e-01  linmin: -1.991e-05  t[s]:    280.58
	FillingsUpdate:  mu: -0.101914309  nElectrons: 171.000000
	SubspaceRotationAdjust: set factor to 0.0857
ElecMinimize: Iter:  42  F: -809.363726078924401  |grad|_K:  3.583e-07  alpha:  6.116e-01  linmin:  7.783e-05  t[s]:    286.97
	FillingsUpdate:  mu: -0.101068691  nElectrons: 171.000000
	SubspaceRotationAdjust: set factor to 0.0812
ElecMinimize: Iter:  43  F: -809.363728803558843  |grad|_K:  3.188e-07  alpha:  2.719e-01  linmin: -8.174e-04  t[s]:    293.36
	FillingsUpdate:  mu: -0.100917940  nElectrons: 171.000000
	SubspaceRotationAdjust: set factor to 0.0928
ElecMinimize: Iter:  44  F: -809.363730952788728  |grad|_K:  2.941e-07  alpha:  2.863e-01  linmin:  7.088e-04  t[s]:    299.77
	FillingsUpdate:  mu: -0.101232999  nElectrons: 171.000000
	SubspaceRotationAdjust: set factor to 0.1
ElecMinimize: Iter:  45  F: -809.363731577002454  |grad|_K:  2.628e-07  alpha:  1.235e-01  linmin: -2.440e-04  t[s]:    306.17
	FillingsUpdate:  mu: -0.101585894  nElectrons: 171.000000
	SubspaceRotationAdjust: set factor to 0.104
ElecMinimize: Iter:  46  F: -809.363732185080039  |grad|_K:  2.495e-07  alpha:  1.343e-01  linmin:  1.798e-04  t[s]:    312.57
	FillingsUpdate:  mu: -0.101530451  nElectrons: 171.000000

Dumping 'X.fillings' ... done
Dumping 'X.wfns' ... done
Dumping 'X.force' ... done
Dumping 'X.eigenvals' ... done
	SubspaceRotationAdjust: set factor to 0.128
ElecMinimize: Iter:  47  F: -809.363732639883324  |grad|_K:  2.405e-07  alpha:  1.196e-01  linmin:  1.058e-04  t[s]:    319.67
	FillingsUpdate:  mu: -0.101231572  nElectrons: 171.000000
	SubspaceRotationAdjust: set factor to 0.144
ElecMinimize: Iter:  48  F: -809.363733020305403  |grad|_K:  2.407e-07  alpha:  1.067e-01  linmin:  5.172e-05  t[s]:    326.07
	FillingsUpdate:  mu: -0.101007127  nElectrons: 171.000000
	SubspaceRotationAdjust: set factor to 0.178
ElecMinimize: Iter:  49  F: -809.363733430883372  |grad|_K:  2.673e-07  alpha:  1.143e-01  linmin:  7.173e-05  t[s]:    332.47
	FillingsUpdate:  mu: -0.101155245  nElectrons: 171.000000
	SubspaceRotationAdjust: set factor to 0.218
ElecMinimize: Iter:  50  F: -809.363733840485793  |grad|_K:  2.641e-07  alpha:  9.189e-02  linmin:  4.754e-05  t[s]:    338.88
	FillingsUpdate:  mu: -0.101480810  nElectrons: 171.000000
	SubspaceRotationAdjust: set factor to 0.209
ElecMinimize: Iter:  51  F: -809.363734198053407  |grad|_K:  2.909e-07  alpha:  8.263e-02  linmin:  4.494e-05  t[s]:    345.28
	FillingsUpdate:  mu: -0.101543635  nElectrons: 171.000000
	SubspaceRotationAdjust: set factor to 0.186
ElecMinimize: Iter:  52  F: -809.363734672367627  |grad|_K:  3.159e-07  alpha:  9.026e-02  linmin:  6.605e-05  t[s]:    351.68
	FillingsUpdate:  mu: -0.101216719  nElectrons: 171.000000
	SubspaceRotationAdjust: set factor to 0.193
ElecMinimize: Iter:  53  F: -809.363735108306628  |grad|_K:  3.017e-07  alpha:  7.039e-02  linmin:  3.456e-05  t[s]:    358.07
	FillingsUpdate:  mu: -0.100920740  nElectrons: 171.000000
	SubspaceRotationAdjust: set factor to 0.162
ElecMinimize: Iter:  54  F: -809.363735583438711  |grad|_K:  3.456e-07  alpha:  8.508e-02  linmin:  1.577e-04  t[s]:    364.47
	FillingsUpdate:  mu: -0.101003140  nElectrons: 171.000000

Dumping 'X.fillings' ... done
Dumping 'X.wfns' ... done
Dumping 'X.force' ... done
Dumping 'X.eigenvals' ... done
	SubspaceRotationAdjust: set factor to 0.154
ElecMinimize: Iter:  55  F: -809.363736003531926  |grad|_K:  3.224e-07  alpha:  5.667e-02  linmin:  9.857e-07  t[s]:    371.61
	FillingsUpdate:  mu: -0.101254541  nElectrons: 171.000000
	SubspaceRotationAdjust: set factor to 0.159
ElecMinimize: Iter:  56  F: -809.363736341052117  |grad|_K:  3.049e-07  alpha:  5.135e-02  linmin:  1.024e-04  t[s]:    378.00
	FillingsUpdate:  mu: -0.101438445  nElectrons: 171.000000
	SubspaceRotationAdjust: set factor to 0.148
ElecMinimize: Iter:  57  F: -809.363736599725257  |grad|_K:  3.138e-07  alpha:  4.538e-02  linmin:  1.098e-04  t[s]:    384.35
	FillingsUpdate:  mu: -0.101478893  nElectrons: 171.000000
	SubspaceRotationAdjust: set factor to 0.136
ElecMinimize: Iter:  58  F: -809.363736816935443  |grad|_K:  3.085e-07  alpha:  3.560e-02  linmin:  5.352e-05  t[s]:    390.66
	FillingsUpdate:  mu: -0.101407453  nElectrons: 171.000000
	SubspaceRotationAdjust: set factor to 0.131
ElecMinimize: Iter:  59  F: -809.363736994965052  |grad|_K:  2.926e-07  alpha:  2.987e-02  linmin:  7.560e-05  t[s]:    396.98
	FillingsUpdate:  mu: -0.101293093  nElectrons: 171.000000
	SubspaceRotationAdjust: set factor to 0.131
ElecMinimize: Iter:  60  F: -809.363737135214933  |grad|_K:  2.836e-07  alpha:  2.636e-02  linmin:  6.590e-05  t[s]:    403.28
	FillingsUpdate:  mu: -0.101181299  nElectrons: 171.000000
	SubspaceRotationAdjust: set factor to 0.127
ElecMinimize: Iter:  61  F: -809.363737254510511  |grad|_K:  2.832e-07  alpha:  2.399e-02  linmin:  4.585e-05  t[s]:    409.58
	FillingsUpdate:  mu: -0.101098468  nElectrons: 171.000000
	SubspaceRotationAdjust: set factor to 0.12
ElecMinimize: Iter:  62  F: -809.363737365409634  |grad|_K:  2.849e-07  alpha:  2.208e-02  linmin:  6.587e-05  t[s]:    415.90
	FillingsUpdate:  mu: -0.101061665  nElectrons: 171.000000

Dumping 'X.fillings' ... done
Dumping 'X.wfns' ... done
Dumping 'X.force' ... done
Dumping 'X.eigenvals' ... done
	SubspaceRotationAdjust: set factor to 0.112
ElecMinimize: Iter:  63  F: -809.363737465230656  |grad|_K:  2.827e-07  alpha:  1.984e-02  linmin:  2.724e-06  t[s]:    422.99
	FillingsUpdate:  mu: -0.101070683  nElectrons: 171.000000
	SubspaceRotationAdjust: set factor to 0.107
ElecMinimize: Iter:  64  F: -809.363737560319805  |grad|_K:  2.766e-07  alpha:  1.899e-02  linmin:  4.159e-05  t[s]:    429.38
ElecMinimize: Converged (|Delta F|<1.000000e-07 for 2 iters).
Setting wave functions to eigenvectors of Hamiltonian

# Ionic positions in lattice coordinates:
ion Na   0.000000000000000   0.000000000000000   0.194180000000000 1
ion Na   0.500000000000000   0.500000000000000   0.228160000000000 1
ion Na   0.000000000000000   0.000000000000000   0.262140000000000 1
ion Na   0.500000000000000   0.500000000000000   0.296120000000000 1
ion Na   0.000000000000000   0.000000000000000   0.330100000000000 1
ion Na   0.500000000000000   0.500000000000000   0.364080000000000 1
ion Na   0.000000000000000   0.000000000000000   0.398060000000000 1
ion Na   0.500000000000000   0.500000000000000   0.432040000000000 1
ion Na   0.000000000000000   0.000000000000000   0.466020000000000 1
ion Na   0.500000000000000   0.500000000000000   0.500000000000000 1
ion Na   0.000000000000000   0.000000000000000   0.533980000000000 1
ion Na   0.500000000000000   0.500000000000000   0.567960000000000 1
ion Na   0.000000000000000   0.000000000000000   0.601940000000000 1
ion Na   0.500000000000000   0.500000000000000   0.635920000000000 1
ion Na   0.000000000000000   0.000000000000000   0.669900000000000 1
ion Na   0.500000000000000   0.500000000000000   0.703880000000000 1
ion Na   0.000000000000000   0.000000000000000   0.737860000000000 1
ion Na   0.500000000000000   0.500000000000000   0.771840000000000 1
ion Na   0.000000000000000   0.000000000000000   0.805820000000000 1

# Forces in Lattice coordinates:
force Na   0.000000000000000  -0.000000000000000  -0.045793608319066 1
force Na  -0.000000000000000  -0.000000000000000   0.033600083421773 1
force Na   0.000000000000000   0.000000000000000   0.022846004525094 1
force Na  -0.000000000000000   0.000000000000000   0.016254314439532 1
force Na  -0.000000000000000   0.000000000000000   0.031745461747189 1
force Na  -0.000000000000000  -0.000000000000000   0.037017137323189 1
force Na  -0.000000000000000  -0.000000000000000   0.023865553841816 1
force Na  -0.000000000000000  -0.000000000000000   0.017350871526008 1
force Na   0.000000000000000  -0.000000000000000   0.015588589958519 1
force Na   0.000000000000000  -0.000000000000000   0.000000000000000 1
force Na   0.000000000000000  -0.000000000000000  -0.015588589958519 1
force Na  -0.000000000000000   0.000000000000000  -0.017350871525553 1
force Na  -0.000000000000000  -0.000000000000000  -0.023865553841816 1
force Na  -0.000000000000000   0.000000000000000  -0.037017137324099 1
force Na  -0.000000000000000   0.000000000000000  -0.031745461747189 1
force Na  -0.000000000000000   0.000000000000000  -0.016254314439532 1
force Na   0.000000000000000   0.000000000000000  -0.022846004526913 1
force Na  -0.000000000000000   0.000000000000000  -0.033600083419954 1
force Na   0.000000000000000  -0.000000000000000   0.045793608319065 1

# Energy components:
   Eewald =   -36952.9708873334311647
       EH =   -36305.0739245690056123
     Eloc =    72401.3033056629501516
      Enl =     -245.6159014961486378
   Epulay =       -0.0000158585933675
      Exc =     -118.9766020952606027
       KE =      412.0437865781951245
-------------------------------------
     Etot =     -809.2902391112941132
       TS =        0.0734984490257354
-------------------------------------
        F =     -809.3637375603198052

IonicMinimize: Iter:   0  F: -809.363737560319805  |grad|_K:  1.389e-04  t[s]:    430.36
IonicMinimize: None of the convergence criteria satisfied after 0 iterations.

#--- Lowdin population analysis ---
# oxidation-state Na +0.072 +0.049 +0.046 +0.055 +0.053 +0.054 +0.055 +0.055 +0.056 +0.056 +0.056 +0.055 +0.055 +0.054 +0.053 +0.055 +0.046 +0.049 +0.072


Dumping 'X.fillings' ... done
Dumping 'X.wfns' ... done
Dumping 'X.ionpos' ... done
Dumping 'X.lattice' ... done
Dumping 'X.n' ... done
Dumping 'X.eigenvals' ... done
Dumping 'X.eigStats' ... 
	eMin: -2.063235 at state 0 ( [ +0.000000 +0.000000 +0.000000 ] spin 0 )
	HOMO: -0.101255 at state 17 ( [ +0.272727 +0.454545 +0.000000 ] spin 0 )
	mu  : -0.101071
	LUMO: -0.100058 at state 9 ( [ +0.090909 +0.363636 +0.000000 ] spin 0 )
	eMax: +0.005241 at state 11 ( [ +0.181818 +0.181818 +0.000000 ] spin 0 )
	HOMO-LUMO gap: +0.001197
	Optical gap  : +0.003712 at state 17 ( [ +0.272727 +0.454545 +0.000000 ] spin 0 )
Dumping 'X.dos' ... done.
End date and time: Thu Nov  9 01:34:07 2023  (Duration: 0-0:07:11.74)
Done!

*************** JDFTx 1.7.0  ***************

Start date and time: Thu Nov  9 01:34:09 2023
Executable jdftx with command-line: -m -i X.in -o X.out
Running on hosts (process indices):  ac0735 (0-20)
Divided in process groups (process indices):  0 (0)  1 (1)  2 (2)  3 (3)  4 (4)  5 (5)  6 (6)  7 (7)  8 (8)  9 (9)  10 (10)  11 (11)  12 (12)  13 (13)  14 (14)  15 (15)  16 (16)  17 (17)  18 (18)  19 (19)  20 (20)
Resource initialization completed at t[s]:      0.02
Run totals: 21 processes, 21 threads, 0 GPUs


Input parsed successfully to the following command list (including defaults):

basis kpoint-dependent
cache-projectors no
coords-type Lattice
core-overlap-check vector
coulomb-interaction Slab 001
coulomb-truncation-embed 0 0 0.5
davidson-band-ratio 1.1
density-of-states Etol 1.000000e-06 Esigma 0.000000e+00 \
		Complete \
	Total \
		Occupied \
	Total
dump End State IonicPositions Lattice ElecDensity CoreDensity EigStats DOS
dump Electronic State Forces
dump Ionic State IonicPositions Forces Lattice DOS
dump-interval Electronic 8
dump-interval Ionic 4
dump-name X.$var
elec-cutoff 30
elec-eigen-algo Davidson
elec-ex-corr gga-PBE
elec-smearing Fermi 0.0095
electronic-minimize  \
	dirUpdateScheme      FletcherReeves \
	linminMethod         DirUpdateRecommended \
	nIterations          2000 \
	history              15 \
	knormThreshold       0 \
	energyDiffThreshold  1e-07 \
	nEnergyDiff          2 \
	alphaTstart          1 \
	alphaTmin            1e-10 \
	updateTestStepSize   yes \
	alphaTreduceFactor   0.1 \
	alphaTincreaseFactor 3 \
	nAlphaAdjustMax      3 \
	wolfeEnergy          0.0001 \
	wolfeGradient        0.9 \
	fdTest               no
exchange-regularization WignerSeitzTruncated
fluid None
fluid-ex-corr (null) lda-PZ
fluid-gummel-loop 10 1.000000e-05
fluid-minimize  \
	dirUpdateScheme      PolakRibiere \
	linminMethod         DirUpdateRecommended \
	nIterations          100 \
	history              15 \
	knormThreshold       0 \
	energyDiffThreshold  0 \
	nEnergyDiff          2 \
	alphaTstart          1 \
	alphaTmin            1e-10 \
	updateTestStepSize   yes \
	alphaTreduceFactor   0.1 \
	alphaTincreaseFactor 3 \
	nAlphaAdjustMax      3 \
	wolfeEnergy          0.0001 \
	wolfeGradient        0.9 \
	fdTest               no
fluid-solvent H2O 55.338 ScalarEOS \
	epsBulk 78.4 \
	pMol 0.92466 \
	epsInf 1.77 \
	Pvap 1.06736e-10 \
	sigmaBulk 4.62e-05 \
	Rvdw 2.61727 \
	Res 1.42 \
	tauNuc 343133 \
	poleEl 15 7 1
forces-output-coords Positions
ion Na   0.000000000000000   0.000000000000000   0.194180000000000 1
ion Na   0.500000000000000   0.500000000000000   0.228160000000000 1
ion Na   0.000000000000000   0.000000000000000   0.262140000000000 1
ion Na   0.500000000000000   0.500000000000000   0.296120000000000 1
ion Na   0.000000000000000   0.000000000000000   0.330100000000000 1
ion Na   0.500000000000000   0.500000000000000   0.364080000000000 1
ion Na   0.000000000000000   0.000000000000000   0.398060000000000 1
ion Na   0.500000000000000   0.500000000000000   0.432040000000000 1
ion Na   0.000000000000000   0.000000000000000   0.466020000000000 1
ion Na   0.500000000000000   0.500000000000000   0.500000000000000 1
ion Na   0.000000000000000   0.000000000000000   0.533980000000000 1
ion Na   0.500000000000000   0.500000000000000   0.567960000000000 1
ion Na   0.000000000000000   0.000000000000000   0.601940000000000 1
ion Na   0.500000000000000   0.500000000000000   0.635920000000000 1
ion Na   0.000000000000000   0.000000000000000   0.669900000000000 1
ion Na   0.500000000000000   0.500000000000000   0.703880000000000 1
ion Na   0.000000000000000   0.000000000000000   0.737860000000000 1
ion Na   0.500000000000000   0.500000000000000   0.771840000000000 1
ion Na   0.000000000000000   0.000000000000000   0.805820000000000 1
ion-species SG15/$ID_ONCV_PBE.upf
ion-width 0
ionic-minimize  \
	dirUpdateScheme      L-BFGS \
	linminMethod         DirUpdateRecommended \
	nIterations          0 \
	history              15 \
	knormThreshold       0.0001 \
	energyDiffThreshold  1e-06 \
	nEnergyDiff          2 \
	alphaTstart          1 \
	alphaTmin            1e-10 \
	updateTestStepSize   yes \
	alphaTreduceFactor   0.1 \
	alphaTincreaseFactor 3 \
	nAlphaAdjustMax      3 \
	wolfeEnergy          0.0001 \
	wolfeGradient        0.9 \
	fdTest               no
kpoint   0.000000000000   0.000000000000   0.000000000000  1.00000000000000
kpoint-folding 11 11 1 
latt-move-scale 1 1 1
latt-scale 1 1 1 
lattice  \
	   7.936714821600003   -0.000000000000000   -0.000000000000000  \
	   0.000000000000000    7.936714821600003   -0.000000000000000  \
	   0.000000000000000    0.000000000000000  116.783991189000005 
lattice-minimize  \
	dirUpdateScheme      L-BFGS \
	linminMethod         DirUpdateRecommended \
	nIterations          0 \
	history              15 \
	knormThreshold       0 \
	energyDiffThreshold  1e-06 \
	nEnergyDiff          2 \
	alphaTstart          1 \
	alphaTmin            1e-10 \
	updateTestStepSize   yes \
	alphaTreduceFactor   0.1 \
	alphaTincreaseFactor 3 \
	nAlphaAdjustMax      3 \
	wolfeEnergy          0.0001 \
	wolfeGradient        0.9 \
	fdTest               no
lcao-params -1 1e-06 0.0095
pcm-variant GLSSA13
spintype no-spin
subspace-rotation-factor 1 yes
symmetries automatic
symmetry-threshold 0.0001
wavefunction read X.wfns 95 20.000000



---------- Setting up symmetries ----------

Found 16 point-group symmetries of the bravais lattice
Found 16 space-group symmetries with basis
Applied RMS atom displacement 0 bohrs to make symmetries exact.

---------- Initializing the Grid ----------
R = 
[      7.93671            0            0  ]
[            0      7.93671            0  ]
[            0            0      116.784  ]
unit cell volume = 7356.39
G =
[   0.791661          0          0  ]
[         -0   0.791661          0  ]
[          0         -0  0.0538018  ]
Minimum fftbox size, Smin = [  40  40  576  ]
Chosen fftbox size, S = [  40  40  576  ]

---------- Exchange Correlation functional ----------
Initalized PBE GGA exchange.
Initalized PBE GGA correlation.

---------- Setting up pseudopotentials ----------
Width of ionic core gaussian charges (only for fluid interactions / plotting) set to 0

Reading pseudopotential file '/net/software/testing/software/jdftx/1.7.0-foss-2021b-mkl/share/jdftx/pseudopotentials/SG15/Na_ONCV_PBE.upf':
  'Na' pseudopotential, 'PBE' functional
  Generated using ONCVPSP code by D. R. Hamann
  Author: Martin Schlipf and Francois Gygi  Date: 150915.
  9 valence electrons, 3 orbitals, 4 projectors, 1992 radial grid points, with lMax = 1
  Transforming local potential to a uniform radial grid of dG=0.02 with 1367 points.
  Transforming nonlocal projectors to a uniform radial grid of dG=0.02 with 528 points.
    2S    l: 0   occupation:  2.0   eigenvalue: -2.085640
    2P    l: 1   occupation:  6.0   eigenvalue: -1.053708
    3S    l: 0   occupation:  1.0   eigenvalue: -0.100838
  Transforming atomic orbitals to a uniform radial grid of dG=0.02 with 528 points.
  Core radius for overlap checks: 2.01 bohrs.
  Reading pulay file /net/software/testing/software/jdftx/1.7.0-foss-2021b-mkl/share/jdftx/pseudopotentials/SG15/Na_ONCV_PBE.pulay ... using dE_dnG = -3.261361e-04 computed for Ecut = 30.

Initialized 1 species with 19 total atoms.

Folded 1 k-points by 11x11x1 to 121 k-points.

---------- Setting up k-points, bands, fillings ----------
Reduced to 21 k-points under symmetry. 
Computing the number of bands and number of electrons
Calculating initial fillings.
nElectrons: 171.000000   nBands: 95   nStates: 21

----- Setting up reduced wavefunction bases (one per k-point) -----
average nbasis = 57738.405 , ideal nbasis = 57735.209

----- Initializing Supercell corresponding to k-point mesh -----
Lattice vector linear combinations in supercell:
[  11   0   0  ]
[   0  11   0  ]
[   0   0   1  ]
Supercell lattice vectors:
[  87.3039  0  0  ]
[  0  87.3039  0  ]
[  0  0  116.784  ]

---------- Setting up coulomb interaction ----------
Setting up double-sized grid for truncated Coulomb potentials:
R = 
[      7.93671            0            0  ]
[            0      7.93671            0  ]
[            0            0      233.568  ]
unit cell volume = 14712.8
G =
[   0.791661          0          0  ]
[         -0   0.791661          0  ]
[          0         -0  0.0269009  ]
Chosen fftbox size, S = [  40  40  1152  ]
Integer grid location selected as the embedding center:
   Grid: [  0  0  288  ]
   Lattice: [  0  0  0.5  ]
   Cartesian: [  0  0  58.392  ]
Constructing Wigner-Seitz cell: 6 faces (6 quadrilaterals, 0 hexagons)
Range-separation parameter for embedded mesh potentials due to point charges: 0.568055 bohrs.
Initialized slab truncation along lattice direction 001

---------- Setting up 2D ewald sum ----------
Optimum gaussian width for ewald sums = 4.734710 bohr.
Real space sums over 225 unit cells with max indices [  7  7  0  ]
Reciprocal space sums over 81 terms with max indices [  4  4  0  ]

---------- Allocating electronic variables ----------
Initializing wave functions:  reading from 'X.wfns'


---- Citations for features of the code used in this run ----

   Software package:
      R. Sundararaman, K. Letchworth-Weaver, K.A. Schwarz, D. Gunceler, Y. Ozhabes and T.A. Arias, 'JDFTx: software for joint density-functional theory', SoftwareX 6, 278 (2017)

   gga-PBE exchange-correlation functional:
      J.P. Perdew, K. Burke and M. Ernzerhof, Phys. Rev. Lett. 77, 3865 (1996)

   Pseudopotentials:
      M Schlipf and F Gygi, Comput. Phys. Commun. 196, 36 (2015)

   Truncated Coulomb potentials:
      R. Sundararaman and T.A. Arias, Phys. Rev. B 87, 165122 (2013)

   Total energy minimization with Auxiliary Hamiltonian:
      C. Freysoldt, S. Boeck, and J. Neugebauer, Phys. Rev. B 79, 241103(R) (2009)

   Linear-tetrahedron sampling for density of states:
      G. Lehmann and M. Taut, Phys. status solidi (b) 54, 469 (1972)

This list may not be complete. Please suggest additional citations or
report any other bugs at https://github.com/shankar1729/jdftx/issues

Initialization completed successfully at t[s]:      2.09


Setting the auxilliary hamiltonian equal to the subspace hamiltonian.

-------- Electronic minimization -----------
	FillingsUpdate:  mu: -0.058739856  nElectrons: 171.000000
ElecMinimize: Iter:   0  F: -809.326217989954444  |grad|_K:  4.668e-05  alpha:  1.000e+00
	FillingsUpdate:  mu: -0.118595909  nElectrons: 171.000000
	SubspaceRotationAdjust: set factor to 0.998
ElecMinimize: Iter:   1  F: -809.336313603162012  |grad|_K:  3.690e-05  alpha:  2.499e-02  linmin: -9.876e-04  t[s]:     31.48
ElecMinimize: 	Predicted alpha/alphaT>3.000000, increasing alphaT to 7.496386e-02.
	FillingsUpdate:  mu: -0.220305061  nElectrons: 171.000000
	SubspaceRotationAdjust: set factor to 0.503
ElecMinimize: Iter:   2  F: -809.363066118686675  |grad|_K:  5.222e-05  alpha:  1.070e-01  linmin:  1.725e-04  t[s]:     48.46
	FillingsUpdate:  mu: -0.159262621  nElectrons: 171.000000
	SubspaceRotationAdjust: set factor to 0.292
ElecMinimize: Iter:   3  F: -809.368596461711491  |grad|_K:  1.828e-05  alpha:  1.566e-02  linmin: -3.023e-04  t[s]:     61.44
	FillingsUpdate:  mu: -0.104808497  nElectrons: 171.000000
	SubspaceRotationAdjust: set factor to 0.275
ElecMinimize: Iter:   4  F: -809.370018499867456  |grad|_K:  1.141e-05  alpha:  3.239e-02  linmin:  2.063e-05  t[s]:     74.30
ElecMinimize: 	Predicted alpha/alphaT>3.000000, increasing alphaT to 9.717022e-02.
	FillingsUpdate:  mu: -0.045229016  nElectrons: 171.000000
	SubspaceRotationAdjust: set factor to 0.149
ElecMinimize: Iter:   5  F: -809.371850402874884  |grad|_K:  1.881e-05  alpha:  1.262e-01  linmin:  2.810e-05  t[s]:     90.99
	FillingsUpdate:  mu: -0.010301443  nElectrons: 171.000000
	SubspaceRotationAdjust: set factor to 0.0847
	SubspaceRotationAdjust: resetting CG because factor has changed by 0.0847355
ElecMinimize: 	State modified externally: resetting search direction.
ElecMinimize: Iter:   6  F: -809.375521766484667  |grad|_K:  1.249e-05  alpha:  8.926e-02
	FillingsUpdate:  mu: -0.092923049  nElectrons: 171.000000

Dumping 'X.fillings' ... done
Dumping 'X.wfns' ... done
Dumping 'X.force' ... done
Dumping 'X.eigenvals' ... done
	SubspaceRotationAdjust: set factor to 0.0355
ElecMinimize: Iter:   7  F: -809.379375825908937  |grad|_K:  4.955e-06  alpha:  2.156e-01  linmin:  2.300e-03  t[s]:    125.14
ElecMinimize: 	Predicted alpha/alphaT>3.000000, increasing alphaT to 6.469396e-01.
	FillingsUpdate:  mu: -0.098962921  nElectrons: 171.000000
	SubspaceRotationAdjust: set factor to 0.0445
ElecMinimize: Iter:   8  F: -809.381166141178710  |grad|_K:  4.037e-06  alpha:  6.394e-01  linmin:  7.086e-05  t[s]:    141.77
	FillingsUpdate:  mu: -0.108510460  nElectrons: 171.000000
	SubspaceRotationAdjust: set factor to 0.0476
ElecMinimize: Iter:   9  F: -809.382038122114295  |grad|_K:  3.316e-06  alpha:  4.686e-01  linmin:  3.004e-06  t[s]:    154.57
	FillingsUpdate:  mu: -0.123420742  nElectrons: 171.000000
	SubspaceRotationAdjust: set factor to 0.0554
ElecMinimize: Iter:  10  F: -809.383650982091808  |grad|_K:  5.866e-06  alpha:  1.278e+00  linmin:  1.058e-05  t[s]:    167.45
	FillingsUpdate:  mu: -0.155615207  nElectrons: 171.000000
	SubspaceRotationAdjust: set factor to 0.0578
ElecMinimize: Iter:  11  F: -809.388529158690858  |grad|_K:  1.394e-05  alpha:  1.941e+00  linmin:  6.352e-04  t[s]:    180.39
ElecMinimize: 	Bad step direction: g.d > 0.
ElecMinimize: 	Undoing step.
ElecMinimize: 	Step failed: resetting search direction.
	FillingsUpdate:  mu: -0.155615207  nElectrons: 171.000000
	SubspaceRotationAdjust: set factor to 0.0637
ElecMinimize: Iter:  12  F: -809.388529158705410  |grad|_K:  1.397e-05  alpha:  0.000e+00
	FillingsUpdate:  mu: -0.130247298  nElectrons: 171.000000
	SubspaceRotationAdjust: set factor to 0.0794
ElecMinimize: Iter:  13  F: -809.395555535733934  |grad|_K:  6.907e-06  alpha:  3.129e-01  linmin:  7.390e-05  t[s]:    202.48
	FillingsUpdate:  mu: -0.114503419  nElectrons: 171.000000
	SubspaceRotationAdjust: set factor to 0.109
ElecMinimize: Iter:  14  F: -809.398114761431316  |grad|_K:  3.649e-06  alpha:  4.658e-01  linmin: -1.199e-05  t[s]:    215.45
	FillingsUpdate:  mu: -0.114507969  nElectrons: 171.000000

Dumping 'X.fillings' ... done
Dumping 'X.wfns' ... done
Dumping 'X.force' ... done
Dumping 'X.eigenvals' ... done
	SubspaceRotationAdjust: set factor to 0.114
ElecMinimize: Iter:  15  F: -809.398623017424029  |grad|_K:  2.122e-06  alpha:  3.310e-01  linmin: -5.555e-07  t[s]:    229.42
	FillingsUpdate:  mu: -0.098922468  nElectrons: 171.000000
	SubspaceRotationAdjust: set factor to 0.0838
ElecMinimize: Iter:  16  F: -809.398766452690552  |grad|_K:  1.961e-06  alpha:  2.762e-01  linmin: -1.569e-07  t[s]:    242.51
	FillingsUpdate:  mu: -0.103239616  nElectrons: 171.000000
	SubspaceRotationAdjust: set factor to 0.0703
ElecMinimize: Iter:  17  F: -809.398870204450191  |grad|_K:  1.137e-06  alpha:  2.339e-01  linmin:  5.790e-06  t[s]:    255.48
	FillingsUpdate:  mu: -0.101149411  nElectrons: 171.000000
	SubspaceRotationAdjust: set factor to 0.0795
ElecMinimize: Iter:  18  F: -809.398943109922470  |grad|_K:  8.283e-07  alpha:  4.893e-01  linmin:  1.069e-05  t[s]:    268.46
	FillingsUpdate:  mu: -0.100512150  nElectrons: 171.000000
	SubspaceRotationAdjust: set factor to 0.0888
ElecMinimize: Iter:  19  F: -809.398974831380883  |grad|_K:  6.181e-07  alpha:  4.014e-01  linmin:  2.644e-06  t[s]:    281.41
	FillingsUpdate:  mu: -0.103262231  nElectrons: 171.000000
	SubspaceRotationAdjust: set factor to 0.0743
ElecMinimize: Iter:  20  F: -809.398996330383170  |grad|_K:  7.096e-07  alpha:  4.883e-01  linmin:  1.080e-05  t[s]:    294.36
	FillingsUpdate:  mu: -0.098633437  nElectrons: 171.000000
	SubspaceRotationAdjust: set factor to 0.0616
ElecMinimize: Iter:  21  F: -809.399020509727734  |grad|_K:  6.791e-07  alpha:  4.168e-01  linmin:  4.888e-06  t[s]:    307.19
	FillingsUpdate:  mu: -0.099898380  nElectrons: 171.000000
	SubspaceRotationAdjust: set factor to 0.0636
ElecMinimize: Iter:  22  F: -809.399041964320986  |grad|_K:  5.581e-07  alpha:  4.038e-01  linmin:  6.732e-06  t[s]:    320.04
	FillingsUpdate:  mu: -0.101050016  nElectrons: 171.000000

Dumping 'X.fillings' ... done
Dumping 'X.wfns' ... done
Dumping 'X.force' ... done
Dumping 'X.eigenvals' ... done
	SubspaceRotationAdjust: set factor to 0.0712
ElecMinimize: Iter:  23  F: -809.399061997725539  |grad|_K:  6.131e-07  alpha:  5.585e-01  linmin:  8.024e-06  t[s]:    333.98
	FillingsUpdate:  mu: -0.098643943  nElectrons: 171.000000
	SubspaceRotationAdjust: set factor to 0.0616
ElecMinimize: Iter:  24  F: -809.399081198139015  |grad|_K:  5.415e-07  alpha:  4.432e-01  linmin:  7.531e-06  t[s]:    347.01
	FillingsUpdate:  mu: -0.101640493  nElectrons: 171.000000
	SubspaceRotationAdjust: set factor to 0.0532
ElecMinimize: Iter:  25  F: -809.399095353023540  |grad|_K:  4.606e-07  alpha:  4.191e-01  linmin:  1.413e-05  t[s]:    359.94
	FillingsUpdate:  mu: -0.101564314  nElectrons: 171.000000
	SubspaceRotationAdjust: set factor to 0.0618
ElecMinimize: Iter:  26  F: -809.399105561596571  |grad|_K:  3.640e-07  alpha:  4.180e-01  linmin:  1.017e-05  t[s]:    372.91
	FillingsUpdate:  mu: -0.100276842  nElectrons: 171.000000
	SubspaceRotationAdjust: set factor to 0.0592
ElecMinimize: Iter:  27  F: -809.399112177262396  |grad|_K:  2.994e-07  alpha:  4.335e-01  linmin:  7.410e-06  t[s]:    385.95
	FillingsUpdate:  mu: -0.101289406  nElectrons: 171.000000
	SubspaceRotationAdjust: set factor to 0.0497
ElecMinimize: Iter:  28  F: -809.399116520836401  |grad|_K:  2.266e-07  alpha:  4.207e-01  linmin:  8.424e-06  t[s]:    398.94
	FillingsUpdate:  mu: -0.100708048  nElectrons: 171.000000
	SubspaceRotationAdjust: set factor to 0.0515
ElecMinimize: Iter:  29  F: -809.399119042092025  |grad|_K:  1.926e-07  alpha:  4.264e-01  linmin:  1.876e-05  t[s]:    411.89
	FillingsUpdate:  mu: -0.100510617  nElectrons: 171.000000
	SubspaceRotationAdjust: set factor to 0.0546
ElecMinimize: Iter:  30  F: -809.399121367604494  |grad|_K:  1.994e-07  alpha:  5.441e-01  linmin: -6.666e-06  t[s]:    424.87
	FillingsUpdate:  mu: -0.101301517  nElectrons: 171.000000

Dumping 'X.fillings' ... done
Dumping 'X.wfns' ... done
Dumping 'X.force' ... done
Dumping 'X.eigenvals' ... done
	SubspaceRotationAdjust: set factor to 0.0531
[...]
Dumping 'X.force' ... done
Dumping 'X.eigenvals' ... done
	SubspaceRotationAdjust: set factor to 0.0606
ElecMinimize: Iter:   7  F: -809.379139876166732  |grad|_K:  3.715e-07  alpha:  4.934e-01  linmin: -9.991e-08  t[s]:   2311.69
	FillingsUpdate:  mu: -0.098605965  nElectrons: 171.000000
	SubspaceRotationAdjust: set factor to 0.0689
ElecMinimize: Iter:   8  F: -809.379161434168850  |grad|_K:  3.983e-07  alpha:  6.303e-01  linmin:  9.387e-07  t[s]:   2344.63
	FillingsUpdate:  mu: -0.096564269  nElectrons: 171.000000
	SubspaceRotationAdjust: set factor to 0.0694
ElecMinimize: Iter:   9  F: -809.379183521692426  |grad|_K:  4.280e-07  alpha:  5.615e-01  linmin:  1.047e-06  t[s]:   2377.62
	FillingsUpdate:  mu: -0.099163223  nElectrons: 171.000000
	SubspaceRotationAdjust: set factor to 0.0723
ElecMinimize: Iter:  10  F: -809.379205533031836  |grad|_K:  3.975e-07  alpha:  4.848e-01  linmin: -3.949e-07  t[s]:   2410.65
	FillingsUpdate:  mu: -0.098203717  nElectrons: 171.000000
	SubspaceRotationAdjust: set factor to 0.0812
ElecMinimize: Iter:  11  F: -809.379228823866015  |grad|_K:  4.039e-07  alpha:  5.944e-01  linmin:  1.019e-06  t[s]:   2443.38
	FillingsUpdate:  mu: -0.098054611  nElectrons: 171.000000
	SubspaceRotationAdjust: set factor to 0.0906
ElecMinimize: Iter:  12  F: -809.379255301490275  |grad|_K:  4.196e-07  alpha:  6.550e-01  linmin: -7.029e-08  t[s]:   2476.28
	FillingsUpdate:  mu: -0.099311003  nElectrons: 171.000000
	SubspaceRotationAdjust: set factor to 0.089
ElecMinimize: Iter:  13  F: -809.379277657973034  |grad|_K:  3.768e-07  alpha:  5.122e-01  linmin: -4.182e-07  t[s]:   2509.47
	FillingsUpdate:  mu: -0.096547329  nElectrons: 171.000000
	SubspaceRotationAdjust: set factor to 0.0601
ElecMinimize: Iter:  14  F: -809.379287885791996  |grad|_K:  2.897e-07  alpha:  2.904e-01  linmin: -4.118e-07  t[s]:   2542.62
	FillingsUpdate:  mu: -0.097941923  nElectrons: 171.000000

Dumping 'X.fillings' ... done
Dumping 'X.wfns' ... done
Dumping 'X.ionpos' ... done
Dumping 'X.force' ... done
Dumping 'X.eigenvals' ... done
	SubspaceRotationAdjust: set factor to 0.0451
ElecMinimize: Iter:  15  F: -809.379293537776334  |grad|_K:  1.604e-07  alpha:  2.714e-01  linmin: -1.260e-06  t[s]:   2578.18
	FillingsUpdate:  mu: -0.097896512  nElectrons: 171.000000
	SubspaceRotationAdjust: set factor to 0.0507
ElecMinimize: Iter:  16  F: -809.379295975469176  |grad|_K:  1.058e-07  alpha:  3.816e-01  linmin: -3.624e-06  t[s]:   2611.49
	FillingsUpdate:  mu: -0.097337540  nElectrons: 171.000000
	SubspaceRotationAdjust: set factor to 0.0455
ElecMinimize: Iter:  17  F: -809.379297125604921  |grad|_K:  7.695e-08  alpha:  4.143e-01  linmin: -4.602e-06  t[s]:   2644.47
	FillingsUpdate:  mu: -0.097542230  nElectrons: 171.000000
	SubspaceRotationAdjust: set factor to 0.0483
ElecMinimize: Iter:  18  F: -809.379297828934227  |grad|_K:  6.420e-08  alpha:  4.766e-01  linmin: -4.206e-05  t[s]:   2677.72
	FillingsUpdate:  mu: -0.097673513  nElectrons: 171.000000
	SubspaceRotationAdjust: set factor to 0.0522
ElecMinimize: Iter:  19  F: -809.379298314372704  |grad|_K:  5.124e-08  alpha:  4.741e-01  linmin: -3.351e-05  t[s]:   2711.05
	FillingsUpdate:  mu: -0.097511415  nElectrons: 171.000000
	SubspaceRotationAdjust: set factor to 0.0569
ElecMinimize: Iter:  20  F: -809.379298621753492  |grad|_K:  4.079e-08  alpha:  4.707e-01  linmin: -1.982e-05  t[s]:   2744.50
	FillingsUpdate:  mu: -0.097583492  nElectrons: 171.000000
	SubspaceRotationAdjust: set factor to 0.0685
ElecMinimize: Iter:  21  F: -809.379298812796719  |grad|_K:  3.337e-08  alpha:  4.616e-01  linmin:  9.226e-05  t[s]:   2777.23
	FillingsUpdate:  mu: -0.097635012  nElectrons: 171.000000
	SubspaceRotationAdjust: set factor to 0.0817
ElecMinimize: Iter:  22  F: -809.379298954073420  |grad|_K:  3.067e-08  alpha:  5.099e-01  linmin: -2.647e-04  t[s]:   2810.64
	FillingsUpdate:  mu: -0.097552451  nElectrons: 171.000000

Dumping 'X.fillings' ... done
Dumping 'X.wfns' ... done
Dumping 'X.ionpos' ... done
Dumping 'X.force' ... done
Dumping 'X.eigenvals' ... done
	SubspaceRotationAdjust: set factor to 0.0913
ElecMinimize: Iter:  23  F: -809.379299081302065  |grad|_K:  3.100e-08  alpha:  5.390e-01  linmin: -7.576e-06  t[s]:   2852.48
	FillingsUpdate:  mu: -0.097702102  nElectrons: 171.000000
	SubspaceRotationAdjust: set factor to 0.0916
ElecMinimize: Iter:  24  F: -809.379299198140870  |grad|_K:  3.171e-08  alpha:  4.860e-01  linmin:  5.076e-05  t[s]:   2885.86
	FillingsUpdate:  mu: -0.097508745  nElectrons: 171.000000
	SubspaceRotationAdjust: set factor to 0.0792
ElecMinimize: Iter:  25  F: -809.379299290365793  |grad|_K:  3.014e-08  alpha:  3.787e-01  linmin: -1.576e-05  t[s]:   2919.13
	FillingsUpdate:  mu: -0.097669266  nElectrons: 171.000000
	SubspaceRotationAdjust: set factor to 0.0692
ElecMinimize: Iter:  26  F: -809.379299379707049  |grad|_K:  2.687e-08  alpha:  3.948e-01  linmin:  5.754e-05  t[s]:   2952.40
	FillingsUpdate:  mu: -0.097577456  nElectrons: 171.000000
	SubspaceRotationAdjust: set factor to 0.072
ElecMinimize: Iter:  27  F: -809.379299459227695  |grad|_K:  2.269e-08  alpha:  4.567e-01  linmin:  1.511e-05  t[s]:   2985.55
	FillingsUpdate:  mu: -0.097551263  nElectrons: 171.000000
	SubspaceRotationAdjust: set factor to 0.0772
ElecMinimize: Iter:  28  F: -809.379299517941718  |grad|_K:  1.867e-08  alpha:  4.519e-01  linmin: -2.085e-05  t[s]:   3019.11
	FillingsUpdate:  mu: -0.097596181  nElectrons: 171.000000
	SubspaceRotationAdjust: set factor to 0.0765
ElecMinimize: Iter:  29  F: -809.379299553491933  |grad|_K:  1.519e-08  alpha:  4.162e-01  linmin: -2.079e-04  t[s]:   3052.23
	FillingsUpdate:  mu: -0.097514947  nElectrons: 171.000000
	SubspaceRotationAdjust: set factor to 0.0698
ElecMinimize: Iter:  30  F: -809.379299580017005  |grad|_K:  1.417e-08  alpha:  4.326e-01  linmin:  1.447e-04  t[s]:   3085.23
	FillingsUpdate:  mu: -0.097574457  nElectrons: 171.000000

Dumping 'X.fillings' ... done
Dumping 'X.wfns' ... done
Dumping 'X.ionpos' ... done
Dumping 'X.force' ... done
Dumping 'X.eigenvals' ... done
	SubspaceRotationAdjust: set factor to 0.0629
ElecMinimize: Iter:  31  F: -809.379299599040337  |grad|_K:  1.197e-08  alpha:  4.045e-01  linmin:  3.730e-05  t[s]:   3124.20
	FillingsUpdate:  mu: -0.097544172  nElectrons: 171.000000
	SubspaceRotationAdjust: set factor to 0.0629
ElecMinimize: Iter:  32  F: -809.379299614414776  |grad|_K:  1.150e-08  alpha:  5.083e-01  linmin:  5.152e-04  t[s]:   3157.49
	FillingsUpdate:  mu: -0.097535788  nElectrons: 171.000000
	SubspaceRotationAdjust: set factor to 0.0653
ElecMinimize: Iter:  33  F: -809.379299623986640  |grad|_K:  8.591e-09  alpha:  3.509e-01  linmin: -4.418e-04  t[s]:   3190.52
	FillingsUpdate:  mu: -0.097570060  nElectrons: 171.000000
	SubspaceRotationAdjust: set factor to 0.0625
ElecMinimize: Iter:  34  F: -809.379299631008848  |grad|_K:  7.554e-09  alpha:  3.726e-01  linmin:  1.459e-04  t[s]:   3223.98
ElecMinimize: Converged (|Delta F|<1.000000e-08 for 2 iters).
Setting wave functions to eigenvectors of Hamiltonian
Converging empty states (this may take a while): |deigs|: 1.875e-08

# Ionic positions in lattice coordinates:
ion Na   0.000000000000000   0.000000000000000   0.194150714914508 1
ion Na   0.500000000000000   0.500000000000000   0.228501292824580 1
ion Na  -0.000000000000000   0.000000000000000   0.262137336167812 1
ion Na   0.500000000000000   0.500000000000000   0.295803890383330 1
ion Na   0.000000000000000   0.000000000000000   0.330103877270690 1
ion Na   0.500000000000000   0.500000000000000   0.364317117295589 1
ion Na   0.000000000000000   0.000000000000000   0.398077947748225 1
ion Na   0.500000000000000   0.500000000000000   0.432008159167161 1
ion Na   0.000000000000000   0.000000000000000   0.465791782864018 1
ion Na   0.500000000000000   0.500000000000000   0.500000000000000 1
ion Na   0.000000000000000   0.000000000000000   0.534208217135982 1
ion Na   0.500000000000000   0.500000000000000   0.567991840832839 1
ion Na   0.000000000000000   0.000000000000000   0.601922052251776 1
ion Na   0.500000000000000   0.500000000000000   0.635682882704411 1
ion Na   0.000000000000000   0.000000000000000   0.669896122729310 1
ion Na   0.500000000000000   0.500000000000000   0.704196109616670 1
ion Na   0.000000000000000   0.000000000000000   0.737862663832188 1
ion Na   0.500000000000000   0.500000000000000   0.771498707175420 1
ion Na   0.000000000000000   0.000000000000000   0.805849285085492 1

# Forces in Lattice coordinates:
force Na  -0.000000000000000   0.000000000000000   0.010013089838607 1
force Na  -0.000000000000000   0.000000000000000  -0.009873955099645 1
force Na   0.000000000000000   0.000000000000000  -0.002054783476087 1
force Na  -0.000000000000000  -0.000000000000000   0.006004555082769 1
force Na   0.000000000000000  -0.000000000000000  -0.001707399076296 1
force Na  -0.000000000000000   0.000000000000000  -0.005152533930868 1
force Na  -0.000000000000000  -0.000000000000000   0.002329856953939 1
force Na   0.000000000000000  -0.000000000000000  -0.001927073042477 1
force Na  -0.000000000000000  -0.000000000000000   0.004197853297203 1
force Na   0.000000000000000  -0.000000000000000   0.000000000000000 1
force Na  -0.000000000000000  -0.000000000000000  -0.004197853297203 1
force Na   0.000000000000000   0.000000000000000   0.001927073042477 1
force Na  -0.000000000000000  -0.000000000000000  -0.002329856954848 1
force Na  -0.000000000000000   0.000000000000000   0.005152533930868 1
force Na   0.000000000000000  -0.000000000000000   0.001707399079934 1
force Na  -0.000000000000000   0.000000000000000  -0.006004555082769 1
force Na   0.000000000000000   0.000000000000000   0.002054783474268 1
force Na  -0.000000000000000  -0.000000000000000   0.009873955101464 1
force Na  -0.000000000000000  -0.000000000000000  -0.010013089838607 1

# Energy components:
   Eewald =   -36948.1289543066450278
       EH =   -36299.5085459384354181
     Eloc =    72390.7962442809221102
      Enl =     -245.7031936073825307
   Epulay =       -0.0000000504192561
      Exc =     -119.0009081202502159
       KE =      412.1666639999178869
-------------------------------------
     Etot =     -809.3786937422922847
       TS =        0.0006058887165219
-------------------------------------
        F =     -809.3792996310088483

IonicMinimize: Iter:   2  F: -809.379299631008848  |grad|_K:  2.751e-05  alpha:  1.000e+00  linmin:  7.554e-01  t[s]:   3263.09

#--- Lowdin population analysis ---
# oxidation-state Na +0.052 +0.051 +0.033 +0.046 +0.045 +0.035 +0.044 +0.039 +0.044 +0.046 +0.044 +0.039 +0.044 +0.035 +0.045 +0.046 +0.033 +0.051 +0.052


-------- Electronic minimization -----------
	FillingsUpdate:  mu: -0.095571549  nElectrons: 171.000000
ElecMinimize: Iter:   0  F: -809.379274860375745  |grad|_K:  6.012e-07  alpha:  1.000e+00
	FillingsUpdate:  mu: -0.098593723  nElectrons: 171.000000
	SubspaceRotationAdjust: set factor to 0.0331
ElecMinimize: Iter:   1  F: -809.379298043246649  |grad|_K:  1.886e-07  alpha:  2.583e-01  linmin: -2.852e-04  t[s]:   3318.99
	FillingsUpdate:  mu: -0.097332233  nElectrons: 171.000000
	SubspaceRotationAdjust: set factor to 0.0192
ElecMinimize: Iter:   2  F: -809.379300185223315  |grad|_K:  7.856e-08  alpha:  2.428e-01  linmin:  9.375e-05  t[s]:   3350.91
	FillingsUpdate:  mu: -0.097432461  nElectrons: 171.000000
	SubspaceRotationAdjust: set factor to 0.0253
ElecMinimize: Iter:   3  F: -809.379300933573404  |grad|_K:  5.527e-08  alpha:  4.915e-01  linmin:  9.017e-04  t[s]:   3382.78
	FillingsUpdate:  mu: -0.097756618  nElectrons: 171.000000
	SubspaceRotationAdjust: set factor to 0.0262
ElecMinimize: Iter:   4  F: -809.379301376087710  |grad|_K:  4.027e-08  alpha:  5.876e-01  linmin: -3.093e-04  t[s]:   3414.67
	FillingsUpdate:  mu: -0.097858344  nElectrons: 171.000000
	SubspaceRotationAdjust: set factor to 0.0291
ElecMinimize: Iter:   5  F: -809.379301624303707  |grad|_K:  3.127e-08  alpha:  6.194e-01  linmin:  1.122e-03  t[s]:   3446.36
	FillingsUpdate:  mu: -0.097739074  nElectrons: 171.000000
	SubspaceRotationAdjust: set factor to 0.0325
ElecMinimize: Iter:   6  F: -809.379301768511596  |grad|_K:  2.337e-08  alpha:  6.026e-01  linmin:  2.753e-04  t[s]:   3478.01
	FillingsUpdate:  mu: -0.097650181  nElectrons: 171.000000

Dumping 'X.fillings' ... done
Dumping 'X.wfns' ... done
Dumping 'X.ionpos' ... done
Dumping 'X.force' ... done
Dumping 'X.eigenvals' ... done
	SubspaceRotationAdjust: set factor to 0.0363
ElecMinimize: Iter:   7  F: -809.379301842410428  |grad|_K:  1.871e-08  alpha:  5.471e-01  linmin:  2.247e-04  t[s]:   3512.19
	FillingsUpdate:  mu: -0.097679424  nElectrons: 171.000000
	SubspaceRotationAdjust: set factor to 0.04
ElecMinimize: Iter:   8  F: -809.379301892400349  |grad|_K:  1.703e-08  alpha:  5.951e-01  linmin:  3.479e-04  t[s]:   3544.21
	FillingsUpdate:  mu: -0.097662929  nElectrons: 171.000000
	SubspaceRotationAdjust: set factor to 0.0437
ElecMinimize: Iter:   9  F: -809.379301941011818  |grad|_K:  1.857e-08  alpha:  6.869e-01  linmin: -6.688e-05  t[s]:   3576.16
	FillingsUpdate:  mu: -0.097565707  nElectrons: 171.000000
	SubspaceRotationAdjust: set factor to 0.046
ElecMinimize: Iter:  10  F: -809.379301993784338  |grad|_K:  1.824e-08  alpha:  6.018e-01  linmin:  1.083e-04  t[s]:   3607.91
	FillingsUpdate:  mu: -0.097559303  nElectrons: 171.000000
	SubspaceRotationAdjust: set factor to 0.0505
ElecMinimize: Iter:  11  F: -809.379302036179524  |grad|_K:  1.553e-08  alpha:  5.195e-01  linmin: -4.849e-04  t[s]:   3639.51
	FillingsUpdate:  mu: -0.097586497  nElectrons: 171.000000
	SubspaceRotationAdjust: set factor to 0.0537
ElecMinimize: Iter:  12  F: -809.379302068755123  |grad|_K:  1.345e-08  alpha:  5.235e-01  linmin:  4.909e-04  t[s]:   3671.38
	FillingsUpdate:  mu: -0.097560527  nElectrons: 171.000000
	SubspaceRotationAdjust: set factor to 0.0567
ElecMinimize: Iter:  13  F: -809.379302089739213  |grad|_K:  1.143e-08  alpha:  4.941e-01  linmin:  3.630e-05  t[s]:   3703.33
	FillingsUpdate:  mu: -0.097578339  nElectrons: 171.000000
	SubspaceRotationAdjust: set factor to 0.0616
ElecMinimize: Iter:  14  F: -809.379302107049057  |grad|_K:  1.015e-08  alpha:  5.392e-01  linmin: -1.622e-03  t[s]:   3735.30
	FillingsUpdate:  mu: -0.097585379  nElectrons: 171.000000

Dumping 'X.fillings' ... done
Dumping 'X.wfns' ... done
Dumping 'X.ionpos' ... done
Dumping 'X.force' ... done
Dumping 'X.eigenvals' ... done
	SubspaceRotationAdjust: set factor to 0.0652
ElecMinimize: Iter:  15  F: -809.379302123948264  |grad|_K:  9.865e-09  alpha:  6.132e-01  linmin: -3.323e-04  t[s]:   3771.54
	FillingsUpdate:  mu: -0.097571345  nElectrons: 171.000000
	SubspaceRotationAdjust: set factor to 0.0665
ElecMinimize: Iter:  16  F: -809.379302138515413  |grad|_K:  8.905e-09  alpha:  5.485e-01  linmin:  3.487e-04  t[s]:   3803.23
	FillingsUpdate:  mu: -0.097593195  nElectrons: 171.000000
	SubspaceRotationAdjust: set factor to 0.0676
ElecMinimize: Iter:  17  F: -809.379302146919144  |grad|_K:  6.772e-09  alpha:  4.353e-01  linmin: -1.531e-03  t[s]:   3835.05
	FillingsUpdate:  mu: -0.097584549  nElectrons: 171.000000
	SubspaceRotationAdjust: set factor to 0.0721
ElecMinimize: Iter:  18  F: -809.379302150516423  |grad|_K:  4.593e-09  alpha:  3.327e-01  linmin: -1.110e-02  t[s]:   3867.04
ElecMinimize: Converged (|Delta F|<1.000000e-08 for 2 iters).
Setting wave functions to eigenvectors of Hamiltonian
Converging empty states (this may take a while): |deigs|: 1.463e-09

# Ionic positions in lattice coordinates:
ion Na   0.000000000000000   0.000000000000000   0.194201525449341 1
ion Na   0.500000000000000   0.500000000000000   0.228410115176037 1
ion Na  -0.000000000000000   0.000000000000000   0.262113722185935 1
ion Na   0.500000000000000   0.500000000000000   0.295854439777956 1
ion Na   0.000000000000000   0.000000000000000   0.330096118912243 1
ion Na   0.500000000000000   0.500000000000000   0.364267660863351 1
ion Na   0.000000000000000   0.000000000000000   0.398076038694980 1
ion Na   0.500000000000000   0.500000000000000   0.432016678017077 1
ion Na   0.000000000000000   0.000000000000000   0.465837115292422 1
ion Na   0.500000000000000   0.500000000000000   0.500000000000000 1
ion Na   0.000000000000000   0.000000000000000   0.534162884707578 1
ion Na   0.500000000000000   0.500000000000000   0.567983321982923 1
ion Na   0.000000000000000   0.000000000000000   0.601923961305020 1
ion Na   0.500000000000000   0.500000000000000   0.635732339136649 1
ion Na   0.000000000000000   0.000000000000000   0.669903881087757 1
ion Na   0.500000000000000   0.500000000000000   0.704145560222045 1
ion Na   0.000000000000000   0.000000000000000   0.737886277814065 1
ion Na   0.500000000000000   0.500000000000000   0.771589884823963 1
ion Na   0.000000000000000   0.000000000000000   0.805798474550659 1

# Forces in Lattice coordinates:
force Na  -0.000000000000000   0.000000000000000   0.001266139123901 1
force Na   0.000000000000000   0.000000000000000  -0.000859275099929 1
force Na   0.000000000000000   0.000000000000000  -0.001475016529980 1
force Na   0.000000000000000   0.000000000000000   0.000213525089658 1
force Na  -0.000000000000000   0.000000000000000  -0.000709245872798 1
force Na   0.000000000000000  -0.000000000000000  -0.001437665081443 1
force Na  -0.000000000000000   0.000000000000000   0.000331414833875 1
force Na  -0.000000000000000  -0.000000000000000  -0.000098514256865 1
force Na   0.000000000000000  -0.000000000000000   0.001357993754366 1
force Na   0.000000000000000  -0.000000000000000   0.000000000000000 1
force Na   0.000000000000000   0.000000000000000  -0.001357993754821 1
force Na  -0.000000000000000   0.000000000000000   0.000098514256865 1
force Na  -0.000000000000000   0.000000000000000  -0.000331414834784 1
force Na   0.000000000000000   0.000000000000000   0.001437665081443 1
force Na  -0.000000000000000   0.000000000000000   0.000709245872798 1
force Na   0.000000000000000  -0.000000000000000  -0.000213525086020 1
force Na   0.000000000000000   0.000000000000000   0.001475016529980 1
force Na   0.000000000000000  -0.000000000000000   0.000859275099929 1
force Na   0.000000000000000   0.000000000000000  -0.001266139123901 1

# Energy components:
   Eewald =   -36949.3247529778964235
       EH =   -36300.7070798373752041
     Eloc =    72393.1904215504328022
      Enl =     -245.7031940514283406
   Epulay =       -0.0000000504192561
      Exc =     -119.0010576928703472
       KE =      412.1669695282357111
-------------------------------------
     Etot =     -809.3786935313137292
       TS =        0.0006086192027244
-------------------------------------
        F =     -809.3793021505164234


Dumping 'X.fillings' ... done
Dumping 'X.wfns' ... done
Dumping 'X.ionpos' ... done
Dumping 'X.force' ... done
Dumping 'X.lattice' ... done
Dumping 'X.eigenvals' ... done
Dumping 'X.dos' ... done.
IonicMinimize: Iter:   3  F: -809.379302150516423  |grad|_K:  4.838e-06  alpha:  1.000e+00  linmin: -7.892e-01  t[s]:   3902.00
IonicMinimize: Converged (|grad|_K<1.000000e-05).

#--- Lowdin population analysis ---
# oxidation-state Na +0.052 +0.050 +0.033 +0.046 +0.045 +0.036 +0.044 +0.039 +0.044 +0.046 +0.044 +0.039 +0.044 +0.036 +0.045 +0.046 +0.033 +0.050 +0.052


Dumping 'X.fillings' ... done
Dumping 'X.wfns' ... done
Dumping 'X.ionpos' ... done
Dumping 'X.lattice' ... done
Dumping 'X.n' ... done
Dumping 'X.eigenvals' ... done
Dumping 'X.eigStats' ... 
	eMin: -2.059435 at state 0 ( [ +0.000000 +0.000000 +0.000000 ] spin 0 )
	HOMO: -0.098215 at state 17 ( [ +0.272727 +0.454545 +0.000000 ] spin 0 )
	mu  : -0.097585
	LUMO: -0.097146 at state 9 ( [ +0.090909 +0.363636 +0.000000 ] spin 0 )
	eMax: +0.002744 at state 6 ( [ +0.090909 +0.090909 +0.000000 ] spin 0 )
	HOMO-LUMO gap: +0.001070
	Optical gap  : +0.003692 at state 17 ( [ +0.272727 +0.454545 +0.000000 ] spin 0 )
Dumping 'X.dos' ... done.
End date and time: Thu Nov  9 04:26:56 2023  (Duration: 0-1:05:07.45)
Done!
