
*************** JDFTx 1.7.0  ***************

Start date and time: Thu Nov  9 01:31:12 2023
Executable jdftx with command-line: -m -i X.in -o X.out
Running on hosts (process indices):  ac0119 (0-20)
Divided in process groups (process indices):  0 (0)  1 (1)  2 (2)  3 (3)  4 (4)  5 (5)  6 (6)  7 (7)  8 (8)  9 (9)  10 (10)  11 (11)  12 (12)  13 (13)  14 (14)  15 (15)  16 (16)  17 (17)  18 (18)  19 (19)  20 (20)
Resource initialization completed at t[s]:      0.02
Run totals: 21 processes, 21 threads, 0 GPUs


Input parsed successfully to the following command list (including defaults):

basis kpoint-dependent
cache-projectors no
coords-type Lattice
core-overlap-check vector
coulomb-interaction Slab 001
coulomb-truncation-embed 0 0 0.5
davidson-band-ratio 1.1
density-of-states Etol 1.000000e-06 Esigma 0.000000e+00 \
		Complete \
	Total \
		Occupied \
	Total
dump End State IonicPositions Lattice ElecDensity CoreDensity EigStats DOS
dump Electronic State Forces
dump Ionic State IonicPositions Forces Lattice DOS
dump-interval Electronic 8
dump-interval Ionic 4
dump-name X.$var
elec-cutoff 10
elec-eigen-algo Davidson
elec-ex-corr gga-PBE
elec-smearing Fermi 0.0095
electronic-minimize  \
	dirUpdateScheme      FletcherReeves \
	linminMethod         DirUpdateRecommended \
	nIterations          2000 \
	history              15 \
	knormThreshold       0 \
	energyDiffThreshold  1e-06 \
	nEnergyDiff          2 \
	alphaTstart          1 \
	alphaTmin            1e-10 \
	updateTestStepSize   yes \
	alphaTreduceFactor   0.1 \
	alphaTincreaseFactor 3 \
	nAlphaAdjustMax      3 \
	wolfeEnergy          0.0001 \
	wolfeGradient        0.9 \
	fdTest               no
exchange-regularization WignerSeitzTruncated
fluid None
fluid-ex-corr (null) lda-PZ
fluid-gummel-loop 10 1.000000e-05
fluid-minimize  \
	dirUpdateScheme      PolakRibiere \
	linminMethod         DirUpdateRecommended \
	nIterations          100 \
	history              15 \
	knormThreshold       0 \
	energyDiffThreshold  0 \
	nEnergyDiff          2 \
	alphaTstart          1 \
	alphaTmin            1e-10 \
	updateTestStepSize   yes \
	alphaTreduceFactor   0.1 \
	alphaTincreaseFactor 3 \
	nAlphaAdjustMax      3 \
	wolfeEnergy          0.0001 \
	wolfeGradient        0.9 \
	fdTest               no
fluid-solvent H2O 55.338 ScalarEOS \
	epsBulk 78.4 \
	pMol 0.92466 \
	epsInf 1.77 \
	Pvap 1.06736e-10 \
	sigmaBulk 4.62e-05 \
	Rvdw 2.61727 \
	Res 1.42 \
	tauNuc 343133 \
	poleEl 15 7 1
forces-output-coords Positions
initial-state X.$var
ion Na   0.000000000000000   0.000000000000000   0.187800000000000 1
ion Na   0.500000000000000   0.500000000000000   0.220660000000000 1
ion Na   0.000000000000000   0.000000000000000   0.253520000000000 1
ion Na   0.500000000000000   0.500000000000000   0.286390000000000 1
ion Na   0.000000000000000   0.000000000000000   0.319250000000000 1
ion Na   0.500000000000000   0.500000000000000   0.352110000000000 1
ion Na   0.000000000000000   0.000000000000000   0.384980000000000 1
ion Na   0.500000000000000   0.500000000000000   0.417840000000000 1
ion Na   0.000000000000000   0.000000000000000   0.450700000000000 1
ion Na   0.500000000000000   0.500000000000000   0.483570000000000 1
ion Na   0.000000000000000   0.000000000000000   0.516430000000000 1
ion Na   0.500000000000000   0.500000000000000   0.549300000000000 1
ion Na   0.000000000000000   0.000000000000000   0.582160000000000 1
ion Na   0.500000000000000   0.500000000000000   0.615020000000000 1
ion Na   0.000000000000000   0.000000000000000   0.647890000000000 1
ion Na   0.500000000000000   0.500000000000000   0.680750000000000 1
ion Na   0.000000000000000   0.000000000000000   0.713610000000000 1
ion Na   0.500000000000000   0.500000000000000   0.746480000000000 1
ion Na   0.000000000000000   0.000000000000000   0.779340000000000 1
ion Na   0.500000000000000   0.500000000000000   0.812200000000000 1
ion-species SG15/$ID_ONCV_PBE.upf
ion-width 0
ionic-minimize  \
	dirUpdateScheme      L-BFGS \
	linminMethod         DirUpdateRecommended \
	nIterations          0 \
	history              15 \
	knormThreshold       0.0001 \
	energyDiffThreshold  1e-06 \
	nEnergyDiff          2 \
	alphaTstart          1 \
	alphaTmin            1e-10 \
	updateTestStepSize   yes \
	alphaTreduceFactor   0.1 \
	alphaTincreaseFactor 3 \
	nAlphaAdjustMax      3 \
	wolfeEnergy          0.0001 \
	wolfeGradient        0.9 \
	fdTest               no
kpoint   0.000000000000   0.000000000000   0.000000000000  1.00000000000000
kpoint-folding 11 11 1 
latt-move-scale 1 1 1
latt-scale 1.88973 1.88973 1.88973 
lattice  \
	   4.199920000000001   -0.000000000000000   -0.000000000000000  \
	   0.000000000000000    4.199920000000001   -0.000000000000000  \
	   0.000000000000000    0.000000000000000   63.899199999999993 
lattice-minimize  \
	dirUpdateScheme      L-BFGS \
	linminMethod         DirUpdateRecommended \
	nIterations          0 \
	history              15 \
	knormThreshold       0 \
	energyDiffThreshold  1e-06 \
	nEnergyDiff          2 \
	alphaTstart          1 \
	alphaTmin            1e-10 \
	updateTestStepSize   yes \
	alphaTreduceFactor   0.1 \
	alphaTincreaseFactor 3 \
	nAlphaAdjustMax      3 \
	wolfeEnergy          0.0001 \
	wolfeGradient        0.9 \
	fdTest               no
lcao-params -1 1e-06 0.0095
pcm-variant GLSSA13
spintype no-spin
subspace-rotation-factor 1 yes
symmetries automatic
symmetry-threshold 0.0001



---------- Setting up symmetries ----------

Found 16 point-group symmetries of the bravais lattice
Found 16 space-group symmetries with basis
Applied RMS atom displacement 0 bohrs to make symmetries exact.

---------- Initializing the Grid ----------
R = 
[      7.93671            0            0  ]
[            0      7.93671            0  ]
[            0            0      120.752  ]
unit cell volume = 7606.36
G =
[   0.791661          0          0  ]
[         -0   0.791661          0  ]
[          0         -0  0.0520337  ]
Minimum fftbox size, Smin = [  24  24  344  ]
Chosen fftbox size, S = [  24  24  350  ]

---------- Exchange Correlation functional ----------
Initalized PBE GGA exchange.
Initalized PBE GGA correlation.

---------- Setting up pseudopotentials ----------
Width of ionic core gaussian charges (only for fluid interactions / plotting) set to 0

Reading pseudopotential file '/net/software/testing/software/jdftx/1.7.0-foss-2021b-mkl/share/jdftx/pseudopotentials/SG15/Na_ONCV_PBE.upf':
  'Na' pseudopotential, 'PBE' functional
  Generated using ONCVPSP code by D. R. Hamann
  Author: Martin Schlipf and Francois Gygi  Date: 150915.
  9 valence electrons, 3 orbitals, 4 projectors, 1992 radial grid points, with lMax = 1
  Transforming local potential to a uniform radial grid of dG=0.02 with 817 points.
  Transforming nonlocal projectors to a uniform radial grid of dG=0.02 with 307 points.
    2S    l: 0   occupation:  2.0   eigenvalue: -2.085640
    2P    l: 1   occupation:  6.0   eigenvalue: -1.053708
    3S    l: 0   occupation:  1.0   eigenvalue: -0.100838
  Transforming atomic orbitals to a uniform radial grid of dG=0.02 with 307 points.
  Core radius for overlap checks: 2.01 bohrs.
  Reading pulay file /net/software/testing/software/jdftx/1.7.0-foss-2021b-mkl/share/jdftx/pseudopotentials/SG15/Na_ONCV_PBE.pulay ... using dE_dnG = -1.681960e+00 computed for Ecut = 10.

Initialized 1 species with 20 total atoms.

Folded 1 k-points by 11x11x1 to 121 k-points.

---------- Setting up k-points, bands, fillings ----------
Reduced to 21 k-points under symmetry. 
Computing the number of bands and number of electrons
Calculating initial fillings.
nElectrons: 180.000000   nBands: 100   nStates: 21

----- Setting up reduced wavefunction bases (one per k-point) -----
average nbasis = 11485.744 , ideal nbasis = 11488.696

----- Initializing Supercell corresponding to k-point mesh -----
Lattice vector linear combinations in supercell:
[  11   0   0  ]
[   0  11   0  ]
[   0   0   1  ]
Supercell lattice vectors:
[  87.3039  0  0  ]
[  0  87.3039  0  ]
[  0  0  120.752  ]

---------- Setting up coulomb interaction ----------
Setting up double-sized grid for truncated Coulomb potentials:
R = 
[      7.93671            0            0  ]
[            0      7.93671            0  ]
[            0            0      241.504  ]
unit cell volume = 15212.7
G =
[   0.791661          0          0  ]
[         -0   0.791661          0  ]
[          0         -0  0.0260168  ]
Chosen fftbox size, S = [  24  24  700  ]
Integer grid location selected as the embedding center:
   Grid: [  0  0  175  ]
   Lattice: [  0  0  0.5  ]
   Cartesian: [  0  0  60.3761  ]
Constructing Wigner-Seitz cell: 6 faces (6 quadrilaterals, 0 hexagons)
Range-separation parameter for embedded mesh potentials due to point charges: 0.741009 bohrs.
Initialized slab truncation along lattice direction 001

---------- Setting up 2D ewald sum ----------
Optimum gaussian width for ewald sums = 4.734710 bohr.
Real space sums over 225 unit cells with max indices [  7  7  0  ]
Reciprocal space sums over 81 terms with max indices [  4  4  0  ]

---------- Allocating electronic variables ----------
Initializing wave functions:  linear combination of atomic orbitals
Na pseudo-atom occupations:   s ( 2 1 )  p ( 6 )
	FillingsUpdate:  mu: +0.437204903  nElectrons: 180.000000
LCAOMinimize: Iter:   0  F: -833.3985838186251840  |grad|_K:  7.883e-03  alpha:  1.000e+00
LCAOMinimize: 	Step increased F by 2.812295e+00, reducing alpha to 8.921579e-03.
	FillingsUpdate:  mu: +0.112135841  nElectrons: 180.000000
LCAOMinimize: Iter:   1  F: -833.4807238716358597  |grad|_K:  3.113e-03  alpha:  8.922e-03  linmin: -2.119e-01  cgtest:  9.507e-01  t[s]:      5.31
LCAOMinimize: Encountered beta<0, resetting CG.
	FillingsUpdate:  mu: -0.104360810  nElectrons: 180.000000
LCAOMinimize: Iter:   2  F: -833.4982261541550770  |grad|_K:  1.283e-03  alpha:  1.698e-02  linmin:  6.216e-03  cgtest: -4.478e-02  t[s]:      6.97
LCAOMinimize: 	Predicted alpha/alphaT>3.000000, increasing alphaT to 5.094987e-02.
	FillingsUpdate:  mu: -0.150272604  nElectrons: 180.000000
LCAOMinimize: Iter:   3  F: -833.5073632874697296  |grad|_K:  4.813e-04  alpha:  5.271e-02  linmin:  9.930e-04  cgtest:  1.565e-01  t[s]:      9.20
	FillingsUpdate:  mu: -0.105281480  nElectrons: 180.000000
LCAOMinimize: Iter:   4  F: -833.5091649880143905  |grad|_K:  8.377e-04  alpha:  7.290e-02  linmin:  8.663e-05  cgtest:  3.373e-03  t[s]:     10.87
	FillingsUpdate:  mu: -0.143965665  nElectrons: 180.000000
LCAOMinimize: Iter:   5  F: -833.5124136119643481  |grad|_K:  4.292e-04  alpha:  4.330e-02  linmin: -2.598e-05  cgtest:  3.366e-02  t[s]:     12.53
LCAOMinimize: 	Predicted alpha/alphaT>3.000000, increasing alphaT to 1.299106e-01.
	FillingsUpdate:  mu: -0.193527442  nElectrons: 180.000000
LCAOMinimize: Iter:   6  F: -833.5157464410201555  |grad|_K:  5.610e-04  alpha:  1.690e-01  linmin:  4.702e-05  cgtest:  2.555e-03  t[s]:     14.73
	FillingsUpdate:  mu: -0.155728253  nElectrons: 180.000000
LCAOMinimize: Iter:   7  F: -833.5166568591527039  |grad|_K:  4.840e-04  alpha:  2.669e-02  linmin: -2.024e-04  cgtest:  1.446e-02  t[s]:     16.40
	FillingsUpdate:  mu: -0.142708571  nElectrons: 180.000000
LCAOMinimize: Iter:   8  F: -833.5184413248907731  |grad|_K:  1.235e-04  alpha:  7.028e-02  linmin:  1.892e-04  cgtest: -2.835e-01  t[s]:     18.08
	FillingsUpdate:  mu: -0.153719454  nElectrons: 180.000000
LCAOMinimize: Iter:   9  F: -833.5186838882817710  |grad|_K:  1.773e-04  alpha:  1.497e-01  linmin:  7.984e-06  cgtest:  6.926e-03  t[s]:     19.75
	FillingsUpdate:  mu: -0.144766659  nElectrons: 180.000000
LCAOMinimize: Iter:  10  F: -833.5187454101045432  |grad|_K:  6.949e-05  alpha:  1.817e-02  linmin: -1.936e-04  cgtest:  1.152e-02  t[s]:     21.42
LCAOMinimize: 	Predicted alpha/alphaT>3.000000, increasing alphaT to 5.452020e-02.
	FillingsUpdate:  mu: -0.142825620  nElectrons: 180.000000
LCAOMinimize: Iter:  11  F: -833.5187859598282785  |grad|_K:  2.186e-05  alpha:  7.794e-02  linmin:  3.023e-05  cgtest: -3.293e-02  t[s]:     23.64
	FillingsUpdate:  mu: -0.144998788  nElectrons: 180.000000
LCAOMinimize: Iter:  12  F: -833.5187881839186730  |grad|_K:  2.537e-05  alpha:  4.341e-02  linmin: -9.100e-07  cgtest:  6.801e-04  t[s]:     25.30
	FillingsUpdate:  mu: -0.144728955  nElectrons: 180.000000
LCAOMinimize: Iter:  13  F: -833.5187903230970505  |grad|_K:  8.027e-06  alpha:  3.104e-02  linmin: -1.739e-05  cgtest:  1.744e-04  t[s]:     26.99
LCAOMinimize: 	Predicted alpha/alphaT>3.000000, increasing alphaT to 9.310975e-02.
	FillingsUpdate:  mu: -0.144076751  nElectrons: 180.000000
LCAOMinimize: Iter:  14  F: -833.5187914953406789  |grad|_K:  9.484e-06  alpha:  1.696e-01  linmin: -6.040e-05  cgtest:  1.102e-03  t[s]:     29.22
	FillingsUpdate:  mu: -0.144664421  nElectrons: 180.000000
LCAOMinimize: Iter:  15  F: -833.5187917248343865  |grad|_K:  7.234e-06  alpha:  2.372e-02  linmin: -8.298e-06  cgtest: -2.059e-03  t[s]:     30.90
	FillingsUpdate:  mu: -0.144671235  nElectrons: 180.000000
LCAOMinimize: Iter:  16  F: -833.5187920995002742  |grad|_K:  2.639e-06  alpha:  6.618e-02  linmin: -9.730e-04  cgtest:  3.312e-02  t[s]:     32.59
LCAOMinimize: Converged (|Delta F|<1.000000e-06 for 2 iters).


---- Citations for features of the code used in this run ----

   Software package:
      R. Sundararaman, K. Letchworth-Weaver, K.A. Schwarz, D. Gunceler, Y. Ozhabes and T.A. Arias, 'JDFTx: software for joint density-functional theory', SoftwareX 6, 278 (2017)

   gga-PBE exchange-correlation functional:
      J.P. Perdew, K. Burke and M. Ernzerhof, Phys. Rev. Lett. 77, 3865 (1996)

   Pseudopotentials:
      M Schlipf and F Gygi, Comput. Phys. Commun. 196, 36 (2015)

   Truncated Coulomb potentials:
      R. Sundararaman and T.A. Arias, Phys. Rev. B 87, 165122 (2013)

   Total energy minimization with Auxiliary Hamiltonian:
      C. Freysoldt, S. Boeck, and J. Neugebauer, Phys. Rev. B 79, 241103(R) (2009)

   Linear-tetrahedron sampling for density of states:
      G. Lehmann and M. Taut, Phys. status solidi (b) 54, 469 (1972)

This list may not be complete. Please suggest additional citations or
report any other bugs at https://github.com/shankar1729/jdftx/issues

Initialization completed successfully at t[s]:     32.77


-------- Electronic minimization -----------
	FillingsUpdate:  mu: -0.144671235  nElectrons: 180.000000
ElecMinimize: Iter:   0  F: -833.518792099543930  |grad|_K:  4.107e-04  alpha:  1.000e+00
	FillingsUpdate:  mu: -0.124893249  nElectrons: 180.000000
	SubspaceRotationAdjust: set factor to 1
ElecMinimize: Iter:   1  F: -834.709263796152072  |grad|_K:  1.047e-04  alpha:  2.921e-01  linmin:  2.383e-03  t[s]:     36.67
	FillingsUpdate:  mu: -0.289913274  nElectrons: 180.000000
	SubspaceRotationAdjust: set factor to 0.528
ElecMinimize: Iter:   2  F: -834.790078770490254  |grad|_K:  1.869e-04  alpha:  3.056e-01  linmin:  4.670e-05  t[s]:     39.07
	FillingsUpdate:  mu: -0.145212706  nElectrons: 180.000000
	SubspaceRotationAdjust: set factor to 0.511
ElecMinimize: Iter:   3  F: -834.803435031190247  |grad|_K:  4.466e-05  alpha:  1.521e-02  linmin: -6.035e-04  t[s]:     41.46
ElecMinimize: 	Predicted alpha/alphaT>3.000000, increasing alphaT to 4.563864e-02.
ElecMinimize: 	Predicted alpha/alphaT>3.000000, increasing alphaT to 1.369159e-01.
	FillingsUpdate:  mu: -0.022195289  nElectrons: 180.000000
	SubspaceRotationAdjust: set factor to 0.282
ElecMinimize: Iter:   4  F: -834.814071399501017  |grad|_K:  1.015e-04  alpha:  2.106e-01  linmin: -4.762e-06  t[s]:     45.30
	FillingsUpdate:  mu: -0.080126778  nElectrons: 180.000000
	SubspaceRotationAdjust: set factor to 0.357
ElecMinimize: Iter:   5  F: -834.827857027918753  |grad|_K:  4.350e-05  alpha:  5.430e-02  linmin: -1.266e-04  t[s]:     47.69
	FillingsUpdate:  mu: -0.188900440  nElectrons: 180.000000
	SubspaceRotationAdjust: set factor to 0.225
ElecMinimize: Iter:   6  F: -834.834744140718726  |grad|_K:  7.222e-05  alpha:  1.492e-01  linmin:  1.500e-04  t[s]:     50.08
	FillingsUpdate:  mu: -0.183416060  nElectrons: 180.000000

Dumping 'X.fillings' ... done
Dumping 'X.wfns' ... done
Dumping 'X.force' ... done
Dumping 'X.eigenvals' ... done
	SubspaceRotationAdjust: set factor to 0.277
ElecMinimize: Iter:   7  F: -834.848214962144084  |grad|_K:  4.310e-05  alpha:  1.075e-01  linmin:  1.859e-05  t[s]:     52.78
	FillingsUpdate:  mu: -0.093728105  nElectrons: 180.000000
	SubspaceRotationAdjust: set factor to 0.177
ElecMinimize: Iter:   8  F: -834.854673301897492  |grad|_K:  6.147e-05  alpha:  1.443e-01  linmin:  6.691e-05  t[s]:     55.18
	FillingsUpdate:  mu: -0.090308140  nElectrons: 180.000000
	SubspaceRotationAdjust: set factor to 0.333
ElecMinimize: Iter:   9  F: -834.869153935282156  |grad|_K:  3.719e-05  alpha:  1.598e-01  linmin:  3.525e-05  t[s]:     57.60
	FillingsUpdate:  mu: -0.152130103  nElectrons: 180.000000
	SubspaceRotationAdjust: set factor to 0.26
ElecMinimize: Iter:  10  F: -834.873689611275722  |grad|_K:  4.486e-05  alpha:  1.358e-01  linmin:  4.823e-05  t[s]:     60.01
	FillingsUpdate:  mu: -0.085715441  nElectrons: 180.000000
	SubspaceRotationAdjust: set factor to 0.157
ElecMinimize: Iter:  11  F: -834.880546111033254  |grad|_K:  2.412e-05  alpha:  1.413e-01  linmin:  8.983e-05  t[s]:     62.45
	FillingsUpdate:  mu: -0.144083144  nElectrons: 180.000000
	SubspaceRotationAdjust: set factor to 0.105
	SubspaceRotationAdjust: resetting CG because factor has changed by 0.105143
ElecMinimize: 	State modified externally: resetting search direction.
ElecMinimize: Iter:  12  F: -834.883577695829104  |grad|_K:  2.116e-05  alpha:  2.170e-01
	FillingsUpdate:  mu: -0.093438201  nElectrons: 180.000000
	SubspaceRotationAdjust: set factor to 0.117
ElecMinimize: Iter:  13  F: -834.885518636281063  |grad|_K:  1.398e-05  alpha:  1.789e-01  linmin:  3.787e-05  t[s]:     68.57
	FillingsUpdate:  mu: -0.119239927  nElectrons: 180.000000
	SubspaceRotationAdjust: set factor to 0.0985
ElecMinimize: Iter:  14  F: -834.887512598311446  |grad|_K:  1.278e-05  alpha:  4.217e-01  linmin:  2.398e-05  t[s]:     70.95
	FillingsUpdate:  mu: -0.110161237  nElectrons: 180.000000

Dumping 'X.fillings' ... done
Dumping 'X.wfns' ... done
Dumping 'X.force' ... done
Dumping 'X.eigenvals' ... done
	SubspaceRotationAdjust: set factor to 0.0922
ElecMinimize: Iter:  15  F: -834.889799129504581  |grad|_K:  9.883e-06  alpha:  5.793e-01  linmin:  8.175e-06  t[s]:     73.63
	FillingsUpdate:  mu: -0.128964959  nElectrons: 180.000000
	SubspaceRotationAdjust: set factor to 0.0813
ElecMinimize: Iter:  16  F: -834.891288719734348  |grad|_K:  1.024e-05  alpha:  6.304e-01  linmin:  1.327e-05  t[s]:     76.03
	FillingsUpdate:  mu: -0.100581074  nElectrons: 180.000000
	SubspaceRotationAdjust: set factor to 0.0534
ElecMinimize: Iter:  17  F: -834.892078999952219  |grad|_K:  8.953e-06  alpha:  3.088e-01  linmin: -4.250e-05  t[s]:     79.04
	FillingsUpdate:  mu: -0.116278223  nElectrons: 180.000000
	SubspaceRotationAdjust: set factor to 0.0508
ElecMinimize: Iter:  18  F: -834.893042610528141  |grad|_K:  7.790e-06  alpha:  4.941e-01  linmin:  1.610e-05  t[s]:     81.44
	FillingsUpdate:  mu: -0.124879455  nElectrons: 180.000000
	SubspaceRotationAdjust: set factor to 0.0534
ElecMinimize: Iter:  19  F: -834.893865011183266  |grad|_K:  7.064e-06  alpha:  5.618e-01  linmin:  1.016e-05  t[s]:     83.84
	FillingsUpdate:  mu: -0.110796065  nElectrons: 180.000000
	SubspaceRotationAdjust: set factor to 0.045
ElecMinimize: Iter:  20  F: -834.894403591526498  |grad|_K:  5.530e-06  alpha:  4.459e-01  linmin:  8.758e-06  t[s]:     86.23
	FillingsUpdate:  mu: -0.117653149  nElectrons: 180.000000
	SubspaceRotationAdjust: set factor to 0.0443
ElecMinimize: Iter:  21  F: -834.894813952132495  |grad|_K:  5.236e-06  alpha:  5.550e-01  linmin:  8.614e-06  t[s]:     88.67
	FillingsUpdate:  mu: -0.118581816  nElectrons: 180.000000
	SubspaceRotationAdjust: set factor to 0.046
ElecMinimize: Iter:  22  F: -834.895170632628833  |grad|_K:  4.325e-06  alpha:  5.381e-01  linmin:  5.101e-06  t[s]:     91.07
	FillingsUpdate:  mu: -0.114149761  nElectrons: 180.000000

Dumping 'X.fillings' ... done
Dumping 'X.wfns' ... done
Dumping 'X.force' ... done
Dumping 'X.eigenvals' ... done
	SubspaceRotationAdjust: set factor to 0.0455
ElecMinimize: Iter:  23  F: -834.895353285010287  |grad|_K:  2.826e-06  alpha:  4.033e-01  linmin:  2.086e-06  t[s]:     93.77
	FillingsUpdate:  mu: -0.116164466  nElectrons: 180.000000
	SubspaceRotationAdjust: set factor to 0.0467
ElecMinimize: Iter:  24  F: -834.895448934030242  |grad|_K:  2.633e-06  alpha:  4.947e-01  linmin:  4.232e-06  t[s]:     96.17
	FillingsUpdate:  mu: -0.115202449  nElectrons: 180.000000
	SubspaceRotationAdjust: set factor to 0.0489
ElecMinimize: Iter:  25  F: -834.895554087998221  |grad|_K:  2.496e-06  alpha:  6.266e-01  linmin:  9.169e-06  t[s]:     98.57
	FillingsUpdate:  mu: -0.113969059  nElectrons: 180.000000
	SubspaceRotationAdjust: set factor to 0.0507
ElecMinimize: Iter:  26  F: -834.895638597847096  |grad|_K:  2.519e-06  alpha:  5.605e-01  linmin:  5.389e-06  t[s]:    100.96
	FillingsUpdate:  mu: -0.116315353  nElectrons: 180.000000
	SubspaceRotationAdjust: set factor to 0.0515
ElecMinimize: Iter:  27  F: -834.895719151880712  |grad|_K:  2.140e-06  alpha:  5.245e-01  linmin:  1.330e-05  t[s]:    103.37
	FillingsUpdate:  mu: -0.113862487  nElectrons: 180.000000
	SubspaceRotationAdjust: set factor to 0.0514
ElecMinimize: Iter:  28  F: -834.895784493768701  |grad|_K:  2.237e-06  alpha:  5.901e-01  linmin:  2.412e-05  t[s]:    105.76
	FillingsUpdate:  mu: -0.114673358  nElectrons: 180.000000
	SubspaceRotationAdjust: set factor to 0.0543
ElecMinimize: Iter:  29  F: -834.895855461168139  |grad|_K:  2.037e-06  alpha:  5.869e-01  linmin:  2.684e-05  t[s]:    108.16
	FillingsUpdate:  mu: -0.116848389  nElectrons: 180.000000
	SubspaceRotationAdjust: set factor to 0.0542
ElecMinimize: Iter:  30  F: -834.895901902913351  |grad|_K:  1.640e-06  alpha:  4.627e-01  linmin:  1.260e-05  t[s]:    110.56
	FillingsUpdate:  mu: -0.114251307  nElectrons: 180.000000

Dumping 'X.fillings' ... done
Dumping 'X.wfns' ... done
Dumping 'X.force' ... done
Dumping 'X.eigenvals' ... done
	SubspaceRotationAdjust: set factor to 0.0508
ElecMinimize: Iter:  31  F: -834.895934411675967  |grad|_K:  1.478e-06  alpha:  4.997e-01  linmin:  3.298e-05  t[s]:    113.60
	FillingsUpdate:  mu: -0.115559191  nElectrons: 180.000000
	SubspaceRotationAdjust: set factor to 0.0523
ElecMinimize: Iter:  32  F: -834.895961173352021  |grad|_K:  1.215e-06  alpha:  5.070e-01  linmin:  1.994e-05  t[s]:    116.01
	FillingsUpdate:  mu: -0.116098670  nElectrons: 180.000000
	SubspaceRotationAdjust: set factor to 0.055
ElecMinimize: Iter:  33  F: -834.895978045003972  |grad|_K:  9.845e-07  alpha:  4.721e-01  linmin:  9.023e-06  t[s]:    118.43
	FillingsUpdate:  mu: -0.114978396  nElectrons: 180.000000
	SubspaceRotationAdjust: set factor to 0.0541
ElecMinimize: Iter:  34  F: -834.895990035426621  |grad|_K:  9.380e-07  alpha:  5.111e-01  linmin:  6.562e-06  t[s]:    120.83
	FillingsUpdate:  mu: -0.116174441  nElectrons: 180.000000
	SubspaceRotationAdjust: set factor to 0.0531
ElecMinimize: Iter:  35  F: -834.896002421374078  |grad|_K:  9.088e-07  alpha:  5.817e-01  linmin:  7.916e-06  t[s]:    123.24
	FillingsUpdate:  mu: -0.115630718  nElectrons: 180.000000
	SubspaceRotationAdjust: set factor to 0.0542
ElecMinimize: Iter:  36  F: -834.896012802356609  |grad|_K:  8.295e-07  alpha:  5.194e-01  linmin:  2.055e-06  t[s]:    125.65
	FillingsUpdate:  mu: -0.115399354  nElectrons: 180.000000
	SubspaceRotationAdjust: set factor to 0.056
ElecMinimize: Iter:  37  F: -834.896021535419550  |grad|_K:  7.129e-07  alpha:  5.242e-01  linmin:  3.293e-06  t[s]:    128.05
	FillingsUpdate:  mu: -0.116104737  nElectrons: 180.000000
	SubspaceRotationAdjust: set factor to 0.0552
ElecMinimize: Iter:  38  F: -834.896027828669048  |grad|_K:  6.805e-07  alpha:  5.116e-01  linmin:  2.404e-06  t[s]:    130.45
	FillingsUpdate:  mu: -0.115168950  nElectrons: 180.000000

Dumping 'X.fillings' ... done
Dumping 'X.wfns' ... done
Dumping 'X.force' ... done
Dumping 'X.eigenvals' ... done
	SubspaceRotationAdjust: set factor to 0.0528
ElecMinimize: Iter:  39  F: -834.896034119956312  |grad|_K:  6.380e-07  alpha:  5.610e-01  linmin:  3.177e-06  t[s]:    133.14
	FillingsUpdate:  mu: -0.115729061  nElectrons: 180.000000
	SubspaceRotationAdjust: set factor to 0.0527
ElecMinimize: Iter:  40  F: -834.896038796053631  |grad|_K:  5.352e-07  alpha:  4.745e-01  linmin:  1.360e-06  t[s]:    135.55
	FillingsUpdate:  mu: -0.115792637  nElectrons: 180.000000
	SubspaceRotationAdjust: set factor to 0.0549
ElecMinimize: Iter:  41  F: -834.896042554219207  |grad|_K:  4.957e-07  alpha:  5.422e-01  linmin:  3.393e-06  t[s]:    137.99
	FillingsUpdate:  mu: -0.115182505  nElectrons: 180.000000
	SubspaceRotationAdjust: set factor to 0.054
ElecMinimize: Iter:  42  F: -834.896045741127978  |grad|_K:  4.694e-07  alpha:  5.357e-01  linmin:  3.142e-06  t[s]:    140.39
	FillingsUpdate:  mu: -0.115846971  nElectrons: 180.000000
	SubspaceRotationAdjust: set factor to 0.0516
ElecMinimize: Iter:  43  F: -834.896048595810498  |grad|_K:  4.509e-07  alpha:  5.353e-01  linmin: -2.156e-06  t[s]:    142.82
	FillingsUpdate:  mu: -0.115496438  nElectrons: 180.000000
	SubspaceRotationAdjust: set factor to 0.053
ElecMinimize: Iter:  44  F: -834.896051365183212  |grad|_K:  4.370e-07  alpha:  5.625e-01  linmin:  3.030e-07  t[s]:    145.23
	FillingsUpdate:  mu: -0.115242687  nElectrons: 180.000000
	SubspaceRotationAdjust: set factor to 0.0547
ElecMinimize: Iter:  45  F: -834.896054082746900  |grad|_K:  4.418e-07  alpha:  5.877e-01  linmin:  5.180e-06  t[s]:    147.66
	FillingsUpdate:  mu: -0.115689396  nElectrons: 180.000000
	SubspaceRotationAdjust: set factor to 0.0538
ElecMinimize: Iter:  46  F: -834.896056716476664  |grad|_K:  4.278e-07  alpha:  5.581e-01  linmin:  6.607e-06  t[s]:    150.06
	FillingsUpdate:  mu: -0.115206359  nElectrons: 180.000000

Dumping 'X.fillings' ... done
Dumping 'X.wfns' ... done
Dumping 'X.force' ... done
Dumping 'X.eigenvals' ... done
	SubspaceRotationAdjust: set factor to 0.053
ElecMinimize: Iter:  47  F: -834.896059018514052  |grad|_K:  3.839e-07  alpha:  5.200e-01  linmin:  1.219e-06  t[s]:    152.80
	FillingsUpdate:  mu: -0.115488486  nElectrons: 180.000000
	SubspaceRotationAdjust: set factor to 0.0546
ElecMinimize: Iter:  48  F: -834.896060847714807  |grad|_K:  3.551e-07  alpha:  5.130e-01  linmin:  8.784e-06  t[s]:    155.20
	FillingsUpdate:  mu: -0.115637325  nElectrons: 180.000000
	SubspaceRotationAdjust: set factor to 0.057
ElecMinimize: Iter:  49  F: -834.896062635207386  |grad|_K:  3.417e-07  alpha:  5.865e-01  linmin:  6.958e-06  t[s]:    157.60
	FillingsUpdate:  mu: -0.115320151  nElectrons: 180.000000
	SubspaceRotationAdjust: set factor to 0.057
ElecMinimize: Iter:  50  F: -834.896064015768275  |grad|_K:  3.049e-07  alpha:  4.888e-01  linmin:  7.299e-06  t[s]:    160.00
	FillingsUpdate:  mu: -0.115777566  nElectrons: 180.000000
	SubspaceRotationAdjust: set factor to 0.0552
ElecMinimize: Iter:  51  F: -834.896065265653533  |grad|_K:  3.076e-07  alpha:  5.556e-01  linmin:  3.725e-06  t[s]:    162.40
	FillingsUpdate:  mu: -0.115489782  nElectrons: 180.000000
	SubspaceRotationAdjust: set factor to 0.0557
ElecMinimize: Iter:  52  F: -834.896066552814659  |grad|_K:  3.019e-07  alpha:  5.621e-01  linmin:  1.156e-05  t[s]:    164.80
	FillingsUpdate:  mu: -0.115458535  nElectrons: 180.000000
	SubspaceRotationAdjust: set factor to 0.0581
ElecMinimize: Iter:  53  F: -834.896067840397109  |grad|_K:  2.998e-07  alpha:  5.838e-01  linmin: -3.241e-06  t[s]:    167.20
	FillingsUpdate:  mu: -0.115810820  nElectrons: 180.000000
	SubspaceRotationAdjust: set factor to 0.0571
ElecMinimize: Iter:  54  F: -834.896069025099905  |grad|_K:  2.864e-07  alpha:  5.436e-01  linmin:  3.727e-07  t[s]:    169.59
	FillingsUpdate:  mu: -0.115391066  nElectrons: 180.000000

Dumping 'X.fillings' ... done
Dumping 'X.wfns' ... done
Dumping 'X.force' ... done
Dumping 'X.eigenvals' ... done
	SubspaceRotationAdjust: set factor to 0.0541
ElecMinimize: Iter:  55  F: -834.896070088405395  |grad|_K:  2.814e-07  alpha:  5.352e-01  linmin: -1.233e-05  t[s]:    172.31
	FillingsUpdate:  mu: -0.115645759  nElectrons: 180.000000
	SubspaceRotationAdjust: set factor to 0.0538
ElecMinimize: Iter:  56  F: -834.896071106849490  |grad|_K:  2.552e-07  alpha:  5.297e-01  linmin:  7.879e-06  t[s]:    174.70
	FillingsUpdate:  mu: -0.115622915  nElectrons: 180.000000
	SubspaceRotationAdjust: set factor to 0.0562
ElecMinimize: Iter:  57  F: -834.896071905971212  |grad|_K:  2.197e-07  alpha:  5.078e-01  linmin: -6.296e-06  t[s]:    177.09
	FillingsUpdate:  mu: -0.115431314  nElectrons: 180.000000
	SubspaceRotationAdjust: set factor to 0.0569
ElecMinimize: Iter:  58  F: -834.896072490678080  |grad|_K:  1.964e-07  alpha:  4.997e-01  linmin:  1.145e-05  t[s]:    179.49
ElecMinimize: Converged (|Delta F|<1.000000e-06 for 2 iters).
Setting wave functions to eigenvectors of Hamiltonian

# Ionic positions in lattice coordinates:
ion Na   0.000000000000000   0.000000000000000   0.187800000000000 1
ion Na   0.500000000000000   0.500000000000000   0.220660000000000 1
ion Na   0.000000000000000   0.000000000000000   0.253520000000000 1
ion Na   0.500000000000000   0.500000000000000   0.286390000000000 1
ion Na   0.000000000000000   0.000000000000000   0.319250000000000 1
ion Na   0.500000000000000   0.500000000000000   0.352110000000000 1
ion Na   0.000000000000000   0.000000000000000   0.384980000000000 1
ion Na   0.500000000000000   0.500000000000000   0.417840000000000 1
ion Na   0.000000000000000   0.000000000000000   0.450700000000000 1
ion Na   0.500000000000000   0.500000000000000   0.483570000000000 1
ion Na   0.000000000000000   0.000000000000000   0.516430000000000 1
ion Na   0.500000000000000   0.500000000000000   0.549300000000000 1
ion Na   0.000000000000000   0.000000000000000   0.582160000000000 1
ion Na   0.500000000000000   0.500000000000000   0.615020000000000 1
ion Na   0.000000000000000   0.000000000000000   0.647890000000000 1
ion Na   0.500000000000000   0.500000000000000   0.680750000000000 1
ion Na   0.000000000000000   0.000000000000000   0.713610000000000 1
ion Na   0.500000000000000   0.500000000000000   0.746480000000000 1
ion Na   0.000000000000000   0.000000000000000   0.779340000000000 1
ion Na   0.500000000000000   0.500000000000000   0.812200000000000 1

# Forces in Lattice coordinates:
force Na   0.000000000000000   0.000000000000000   0.051516178949655 1
force Na  -0.000000000000000   0.000000000000000   0.021385088719186 1
force Na   0.000000000000000   0.000000000000000   0.006390731599291 1
force Na   0.000000000000000  -0.000000000000000   0.027147129246278 1
force Na   0.000000000000000   0.000000000000000   0.013069928732896 1
force Na   0.000000000000000   0.000000000000000   0.041163709149610 1
force Na   0.000000000000000   0.000000000000000   0.019385566887166 1
force Na  -0.000000000000000   0.000000000000000   0.040725767064505 1
force Na  -0.000000000000000   0.000000000000000   0.008830493452032 1
force Na   0.000000000000000   0.000000000000000   0.018250780982820 1
force Na   0.000000000000000   0.000000000000000  -0.018250780982707 1
force Na  -0.000000000000000   0.000000000000000  -0.008830493451577 1
force Na  -0.000000000000000   0.000000000000000  -0.040725767064505 1
force Na   0.000000000000000   0.000000000000000  -0.019385566887166 1
force Na   0.000000000000000   0.000000000000000  -0.041163709147791 1
force Na  -0.000000000000000   0.000000000000000  -0.013069928734715 1
force Na   0.000000000000000  -0.000000000000000  -0.027147129242640 1
force Na   0.000000000000000  -0.000000000000000  -0.006390731599291 1
force Na  -0.000000000000000  -0.000000000000000  -0.021385088719186 1
force Na   0.000000000000000  -0.000000000000000  -0.051516178949655 1

# Energy components:
   Eewald =   -43066.2361807333436445
       EH =   -42419.4913593636520091
     Eloc =    84603.7420889702625573
      Enl =     -230.9790116249056382
   Epulay =       -0.0130549569573965
      Exc =     -119.5679810933061447
       KE =      397.7216005378199952
-------------------------------------
     Etot =     -834.8238982640821177
       TS =        0.0721742265960030
-------------------------------------
        F =     -834.8960724906780797

IonicMinimize: Iter:   0  F: -834.896072490678080  |grad|_K:  1.369e-04  t[s]:    179.89
IonicMinimize: None of the convergence criteria satisfied after 0 iterations.

#--- Lowdin population analysis ---
# oxidation-state Na +0.070 +0.045 +0.038 +0.049 +0.045 +0.046 +0.047 +0.047 +0.048 +0.048 +0.048 +0.048 +0.047 +0.047 +0.046 +0.045 +0.049 +0.038 +0.045 +0.070


Dumping 'X.fillings' ... done
Dumping 'X.wfns' ... done
Dumping 'X.ionpos' ... done
Dumping 'X.lattice' ... done
Dumping 'X.n' ... done
Dumping 'X.eigenvals' ... done
Dumping 'X.eigStats' ... 
	eMin: -2.309780 at state 5 ( [ +0.000000 +0.454545 +0.000000 ] spin 0 )
	HOMO: -0.115658 at state 14 ( [ +0.181818 +0.454545 +0.000000 ] spin 0 )
	mu  : -0.115431
	LUMO: -0.114764 at state 11 ( [ +0.181818 +0.181818 +0.000000 ] spin 0 )
	eMax: -0.004166 at state 11 ( [ +0.181818 +0.181818 +0.000000 ] spin 0 )
	HOMO-LUMO gap: +0.000894
	Optical gap  : +0.001877 at state 14 ( [ +0.181818 +0.454545 +0.000000 ] spin 0 )
Dumping 'X.dos' ... done.
End date and time: Thu Nov  9 01:34:13 2023  (Duration: 0-0:03:00.29)
Done!

*************** JDFTx 1.7.0  ***************

Start date and time: Thu Nov  9 01:34:15 2023
Executable jdftx with command-line: -m -i X.in -o X.out
Running on hosts (process indices):  ac0119 (0-20)
Divided in process groups (process indices):  0 (0)  1 (1)  2 (2)  3 (3)  4 (4)  5 (5)  6 (6)  7 (7)  8 (8)  9 (9)  10 (10)  11 (11)  12 (12)  13 (13)  14 (14)  15 (15)  16 (16)  17 (17)  18 (18)  19 (19)  20 (20)
Resource initialization completed at t[s]:      0.01
Run totals: 21 processes, 21 threads, 0 GPUs


Input parsed successfully to the following command list (including defaults):

basis kpoint-dependent
cache-projectors no
coords-type Lattice
core-overlap-check vector
coulomb-interaction Slab 001
coulomb-truncation-embed 0 0 0.5
davidson-band-ratio 1.1
density-of-states Etol 1.000000e-06 Esigma 0.000000e+00 \
		Complete \
	Total \
		Occupied \
	Total
dump End State IonicPositions Lattice ElecDensity CoreDensity EigStats DOS
dump Electronic State Forces
dump Ionic State IonicPositions Forces Lattice DOS
dump-interval Electronic 8
dump-interval Ionic 4
dump-name X.$var
elec-cutoff 20
elec-eigen-algo Davidson
elec-ex-corr gga-PBE
elec-smearing Fermi 0.0095
electronic-minimize  \
	dirUpdateScheme      FletcherReeves \
	linminMethod         DirUpdateRecommended \
	nIterations          2000 \
	history              15 \
	knormThreshold       0 \
	energyDiffThreshold  1e-07 \
	nEnergyDiff          2 \
	alphaTstart          1 \
	alphaTmin            1e-10 \
	updateTestStepSize   yes \
	alphaTreduceFactor   0.1 \
	alphaTincreaseFactor 3 \
	nAlphaAdjustMax      3 \
	wolfeEnergy          0.0001 \
	wolfeGradient        0.9 \
	fdTest               no
exchange-regularization WignerSeitzTruncated
fluid None
fluid-ex-corr (null) lda-PZ
fluid-gummel-loop 10 1.000000e-05
fluid-minimize  \
	dirUpdateScheme      PolakRibiere \
	linminMethod         DirUpdateRecommended \
	nIterations          100 \
	history              15 \
	knormThreshold       0 \
	energyDiffThreshold  0 \
	nEnergyDiff          2 \
	alphaTstart          1 \
	alphaTmin            1e-10 \
	updateTestStepSize   yes \
	alphaTreduceFactor   0.1 \
	alphaTincreaseFactor 3 \
	nAlphaAdjustMax      3 \
	wolfeEnergy          0.0001 \
	wolfeGradient        0.9 \
	fdTest               no
fluid-solvent H2O 55.338 ScalarEOS \
	epsBulk 78.4 \
	pMol 0.92466 \
	epsInf 1.77 \
	Pvap 1.06736e-10 \
	sigmaBulk 4.62e-05 \
	Rvdw 2.61727 \
	Res 1.42 \
	tauNuc 343133 \
	poleEl 15 7 1
forces-output-coords Positions
ion Na   0.000000000000000   0.000000000000000   0.187800000000000 1
ion Na   0.500000000000000   0.500000000000000   0.220660000000000 1
ion Na   0.000000000000000   0.000000000000000   0.253520000000000 1
ion Na   0.500000000000000   0.500000000000000   0.286390000000000 1
ion Na   0.000000000000000   0.000000000000000   0.319250000000000 1
ion Na   0.500000000000000   0.500000000000000   0.352110000000000 1
ion Na   0.000000000000000   0.000000000000000   0.384980000000000 1
ion Na   0.500000000000000   0.500000000000000   0.417840000000000 1
ion Na   0.000000000000000   0.000000000000000   0.450700000000000 1
ion Na   0.500000000000000   0.500000000000000   0.483570000000000 1
ion Na   0.000000000000000   0.000000000000000   0.516430000000000 1
ion Na   0.500000000000000   0.500000000000000   0.549300000000000 1
ion Na   0.000000000000000   0.000000000000000   0.582160000000000 1
ion Na   0.500000000000000   0.500000000000000   0.615020000000000 1
ion Na   0.000000000000000   0.000000000000000   0.647890000000000 1
ion Na   0.500000000000000   0.500000000000000   0.680750000000000 1
ion Na   0.000000000000000   0.000000000000000   0.713610000000000 1
ion Na   0.500000000000000   0.500000000000000   0.746480000000000 1
ion Na   0.000000000000000   0.000000000000000   0.779340000000000 1
ion Na   0.500000000000000   0.500000000000000   0.812200000000000 1
ion-species SG15/$ID_ONCV_PBE.upf
ion-width 0
ionic-minimize  \
	dirUpdateScheme      L-BFGS \
	linminMethod         DirUpdateRecommended \
	nIterations          0 \
	history              15 \
	knormThreshold       0.0001 \
	energyDiffThreshold  1e-06 \
	nEnergyDiff          2 \
	alphaTstart          1 \
	alphaTmin            1e-10 \
	updateTestStepSize   yes \
	alphaTreduceFactor   0.1 \
	alphaTincreaseFactor 3 \
	nAlphaAdjustMax      3 \
	wolfeEnergy          0.0001 \
	wolfeGradient        0.9 \
	fdTest               no
kpoint   0.000000000000   0.000000000000   0.000000000000  1.00000000000000
kpoint-folding 11 11 1 
latt-move-scale 1 1 1
latt-scale 1 1 1 
lattice  \
	   7.936714821600003   -0.000000000000000   -0.000000000000000  \
	   0.000000000000000    7.936714821600003   -0.000000000000000  \
	   0.000000000000000    0.000000000000000  120.752235215999988 
lattice-minimize  \
	dirUpdateScheme      L-BFGS \
	linminMethod         DirUpdateRecommended \
	nIterations          0 \
	history              15 \
	knormThreshold       0 \
	energyDiffThreshold  1e-06 \
	nEnergyDiff          2 \
	alphaTstart          1 \
	alphaTmin            1e-10 \
	updateTestStepSize   yes \
	alphaTreduceFactor   0.1 \
	alphaTincreaseFactor 3 \
	nAlphaAdjustMax      3 \
	wolfeEnergy          0.0001 \
	wolfeGradient        0.9 \
	fdTest               no
lcao-params -1 1e-06 0.0095
pcm-variant GLSSA13
spintype no-spin
subspace-rotation-factor 1 yes
symmetries automatic
symmetry-threshold 0.0001
wavefunction read X.wfns 100 10.000000



---------- Setting up symmetries ----------

Found 16 point-group symmetries of the bravais lattice
Found 16 space-group symmetries with basis
Applied RMS atom displacement 0 bohrs to make symmetries exact.

---------- Initializing the Grid ----------
R = 
[      7.93671            0            0  ]
[            0      7.93671            0  ]
[            0            0      120.752  ]
unit cell volume = 7606.36
G =
[   0.791661          0          0  ]
[         -0   0.791661          0  ]
[          0         -0  0.0520337  ]
Minimum fftbox size, Smin = [  32  32  488  ]
Chosen fftbox size, S = [  32  32  490  ]

---------- Exchange Correlation functional ----------
Initalized PBE GGA exchange.
Initalized PBE GGA correlation.

---------- Setting up pseudopotentials ----------
Width of ionic core gaussian charges (only for fluid interactions / plotting) set to 0

Reading pseudopotential file '/net/software/testing/software/jdftx/1.7.0-foss-2021b-mkl/share/jdftx/pseudopotentials/SG15/Na_ONCV_PBE.upf':
  'Na' pseudopotential, 'PBE' functional
  Generated using ONCVPSP code by D. R. Hamann
  Author: Martin Schlipf and Francois Gygi  Date: 150915.
  9 valence electrons, 3 orbitals, 4 projectors, 1992 radial grid points, with lMax = 1
  Transforming local potential to a uniform radial grid of dG=0.02 with 1105 points.
  Transforming nonlocal projectors to a uniform radial grid of dG=0.02 with 432 points.
    2S    l: 0   occupation:  2.0   eigenvalue: -2.085640
    2P    l: 1   occupation:  6.0   eigenvalue: -1.053708
    3S    l: 0   occupation:  1.0   eigenvalue: -0.100838
  Transforming atomic orbitals to a uniform radial grid of dG=0.02 with 432 points.
  Core radius for overlap checks: 2.01 bohrs.
  Reading pulay file /net/software/testing/software/jdftx/1.7.0-foss-2021b-mkl/share/jdftx/pseudopotentials/SG15/Na_ONCV_PBE.pulay ... using dE_dnG = -2.946487e-03 computed for Ecut = 20.

Initialized 1 species with 20 total atoms.

Folded 1 k-points by 11x11x1 to 121 k-points.

---------- Setting up k-points, bands, fillings ----------
Reduced to 21 k-points under symmetry. 
Computing the number of bands and number of electrons
Calculating initial fillings.
nElectrons: 180.000000   nBands: 100   nStates: 21

----- Setting up reduced wavefunction bases (one per k-point) -----
average nbasis = 32492.818 , ideal nbasis = 32494.939

----- Initializing Supercell corresponding to k-point mesh -----
Lattice vector linear combinations in supercell:
[  11   0   0  ]
[   0  11   0  ]
[   0   0   1  ]
Supercell lattice vectors:
[  87.3039  0  0  ]
[  0  87.3039  0  ]
[  0  0  120.752  ]

---------- Setting up coulomb interaction ----------
Setting up double-sized grid for truncated Coulomb potentials:
R = 
[      7.93671            0            0  ]
[            0      7.93671            0  ]
[            0            0      241.504  ]
unit cell volume = 15212.7
G =
[   0.791661          0          0  ]
[         -0   0.791661          0  ]
[          0         -0  0.0260168  ]
Chosen fftbox size, S = [  32  32  980  ]
Integer grid location selected as the embedding center:
   Grid: [  0  0  245  ]
   Lattice: [  0  0  0.5  ]
   Cartesian: [  0  0  60.3761  ]
Constructing Wigner-Seitz cell: 6 faces (6 quadrilaterals, 0 hexagons)
Range-separation parameter for embedded mesh potentials due to point charges: 0.628283 bohrs.
Initialized slab truncation along lattice direction 001

---------- Setting up 2D ewald sum ----------
Optimum gaussian width for ewald sums = 4.734710 bohr.
Real space sums over 225 unit cells with max indices [  7  7  0  ]
Reciprocal space sums over 81 terms with max indices [  4  4  0  ]

---------- Allocating electronic variables ----------
Initializing wave functions:  reading from 'X.wfns'


---- Citations for features of the code used in this run ----

   Software package:
      R. Sundararaman, K. Letchworth-Weaver, K.A. Schwarz, D. Gunceler, Y. Ozhabes and T.A. Arias, 'JDFTx: software for joint density-functional theory', SoftwareX 6, 278 (2017)

   gga-PBE exchange-correlation functional:
      J.P. Perdew, K. Burke and M. Ernzerhof, Phys. Rev. Lett. 77, 3865 (1996)

   Pseudopotentials:
      M Schlipf and F Gygi, Comput. Phys. Commun. 196, 36 (2015)

   Truncated Coulomb potentials:
      R. Sundararaman and T.A. Arias, Phys. Rev. B 87, 165122 (2013)

   Total energy minimization with Auxiliary Hamiltonian:
      C. Freysoldt, S. Boeck, and J. Neugebauer, Phys. Rev. B 79, 241103(R) (2009)

   Linear-tetrahedron sampling for density of states:
      G. Lehmann and M. Taut, Phys. status solidi (b) 54, 469 (1972)

This list may not be complete. Please suggest additional citations or
report any other bugs at https://github.com/shankar1729/jdftx/issues

Initialization completed successfully at t[s]:      1.29


Setting the auxilliary hamiltonian equal to the subspace hamiltonian.

-------- Electronic minimization -----------
	FillingsUpdate:  mu: -0.084962028  nElectrons: 180.000000
ElecMinimize: Iter:   0  F: -834.843864337623472  |grad|_K:  9.498e-04  alpha:  1.000e+00
	FillingsUpdate:  mu: -0.743838663  nElectrons: 180.000000
	SubspaceRotationAdjust: set factor to 0.687
ElecMinimize: Iter:   1  F: -850.130808151630504  |grad|_K:  5.233e-04  alpha:  2.646e-01  linmin:  5.559e-03  t[s]:     18.58
	FillingsUpdate:  mu: +0.352542037  nElectrons: 180.000000
	SubspaceRotationAdjust: set factor to 0.333
ElecMinimize: Iter:   2  F: -850.447337844295362  |grad|_K:  3.778e-04  alpha:  2.844e-02  linmin:  2.352e-03  t[s]:     26.57
ElecMinimize: 	Predicted alpha/alphaT>3.000000, increasing alphaT to 8.531399e-02.
	FillingsUpdate:  mu: +0.458637695  nElectrons: 180.000000
	SubspaceRotationAdjust: set factor to 0.186
ElecMinimize: Iter:   3  F: -851.665239146225872  |grad|_K:  2.321e-04  alpha:  1.935e-01  linmin:  2.544e-05  t[s]:     36.86
	FillingsUpdate:  mu: -0.050497208  nElectrons: 180.000000
	SubspaceRotationAdjust: set factor to 0.274
ElecMinimize: Iter:   4  F: -851.833075502724682  |grad|_K:  6.832e-05  alpha:  4.184e-02  linmin: -2.820e-03  t[s]:     44.84
ElecMinimize: 	Predicted alpha/alphaT>3.000000, increasing alphaT to 1.255285e-01.
	FillingsUpdate:  mu: -0.258373152  nElectrons: 180.000000
	SubspaceRotationAdjust: set factor to 0.162
ElecMinimize: Iter:   5  F: -851.887868002517848  |grad|_K:  7.984e-05  alpha:  1.597e-01  linmin:  4.175e-04  t[s]:     55.10
	FillingsUpdate:  mu: -0.139364767  nElectrons: 180.000000
	SubspaceRotationAdjust: set factor to 0.329
ElecMinimize: Iter:   6  F: -851.921473964327106  |grad|_K:  2.660e-05  alpha:  7.695e-02  linmin: -1.906e-04  t[s]:     63.09
	FillingsUpdate:  mu: -0.051385635  nElectrons: 180.000000

Dumping 'X.fillings' ... done
Dumping 'X.wfns' ... done
Dumping 'X.force' ... done
Dumping 'X.eigenvals' ... done
	SubspaceRotationAdjust: set factor to 0.231
ElecMinimize: Iter:   7  F: -851.927990607163792  |grad|_K:  2.870e-05  alpha:  1.346e-01  linmin:  1.491e-04  t[s]:     71.77
	FillingsUpdate:  mu: -0.106389936  nElectrons: 180.000000
	SubspaceRotationAdjust: set factor to 0.201
ElecMinimize: Iter:   8  F: -851.935119040453287  |grad|_K:  1.311e-05  alpha:  1.281e-01  linmin:  5.648e-05  t[s]:     79.77
ElecMinimize: 	Predicted alpha/alphaT>3.000000, increasing alphaT to 3.843577e-01.
	FillingsUpdate:  mu: -0.080361684  nElectrons: 180.000000
	SubspaceRotationAdjust: set factor to 0.224
ElecMinimize: Iter:   9  F: -851.941809857092039  |grad|_K:  1.385e-05  alpha:  5.733e-01  linmin:  9.852e-06  t[s]:     90.12
	FillingsUpdate:  mu: -0.153042611  nElectrons: 180.000000
	SubspaceRotationAdjust: set factor to 0.136
ElecMinimize: Iter:  10  F: -851.947346444738969  |grad|_K:  2.460e-05  alpha:  4.041e-01  linmin:  1.061e-05  t[s]:     98.08
	FillingsUpdate:  mu: -0.109366697  nElectrons: 180.000000
	SubspaceRotationAdjust: set factor to 0.187
ElecMinimize: Iter:  11  F: -851.952701889661284  |grad|_K:  1.288e-05  alpha:  1.019e-01  linmin: -6.300e-04  t[s]:    106.09
	FillingsUpdate:  mu: -0.062927198  nElectrons: 180.000000
	SubspaceRotationAdjust: set factor to 0.108
	SubspaceRotationAdjust: resetting CG because factor has changed by 0.108162
ElecMinimize: 	State modified externally: resetting search direction.
ElecMinimize: Iter:  12  F: -851.956319510712547  |grad|_K:  1.643e-05  alpha:  2.667e-01
	FillingsUpdate:  mu: -0.116929331  nElectrons: 180.000000
	SubspaceRotationAdjust: set factor to 0.139
ElecMinimize: Iter:  13  F: -851.958366582777671  |grad|_K:  6.313e-06  alpha:  1.107e-01  linmin: -1.586e-04  t[s]:    126.75
ElecMinimize: 	Predicted alpha/alphaT>3.000000, increasing alphaT to 3.321317e-01.
	FillingsUpdate:  mu: -0.100803175  nElectrons: 180.000000
	SubspaceRotationAdjust: set factor to 0.146
ElecMinimize: Iter:  14  F: -851.959690896988604  |grad|_K:  4.836e-06  alpha:  4.857e-01  linmin:  1.032e-05  t[s]:    137.01
	FillingsUpdate:  mu: -0.100924797  nElectrons: 180.000000

Dumping 'X.fillings' ... done
Dumping 'X.wfns' ... done
Dumping 'X.force' ... done
Dumping 'X.eigenvals' ... done
	SubspaceRotationAdjust: set factor to 0.183
ElecMinimize: Iter:  15  F: -851.960498781842830  |grad|_K:  3.412e-06  alpha:  5.060e-01  linmin:  5.150e-06  t[s]:    145.71
	FillingsUpdate:  mu: -0.100699179  nElectrons: 180.000000
	SubspaceRotationAdjust: set factor to 0.21
ElecMinimize: Iter:  16  F: -851.960940447363100  |grad|_K:  3.655e-06  alpha:  5.556e-01  linmin:  9.393e-06  t[s]:    153.67
	FillingsUpdate:  mu: -0.113552661  nElectrons: 180.000000
	SubspaceRotationAdjust: set factor to 0.134
ElecMinimize: Iter:  17  F: -851.961457014502571  |grad|_K:  6.204e-06  alpha:  5.670e-01  linmin:  5.798e-05  t[s]:    161.64
	FillingsUpdate:  mu: -0.097326460  nElectrons: 180.000000
	SubspaceRotationAdjust: set factor to 0.0888
ElecMinimize: Iter:  18  F: -851.961675250441658  |grad|_K:  3.481e-06  alpha:  7.870e-02  linmin: -2.544e-04  t[s]:    169.62
ElecMinimize: 	Predicted alpha/alphaT>3.000000, increasing alphaT to 2.361090e-01.
	FillingsUpdate:  mu: -0.087740586  nElectrons: 180.000000
	SubspaceRotationAdjust: set factor to 0.0646
ElecMinimize: Iter:  19  F: -851.962009860410490  |grad|_K:  3.974e-06  alpha:  3.821e-01  linmin:  3.224e-05  t[s]:    179.94
	FillingsUpdate:  mu: -0.100496574  nElectrons: 180.000000
	SubspaceRotationAdjust: set factor to 0.0541
ElecMinimize: Iter:  20  F: -851.962190443084296  |grad|_K:  2.663e-06  alpha:  1.650e-01  linmin: -6.455e-05  t[s]:    187.92
	FillingsUpdate:  mu: -0.108428623  nElectrons: 180.000000
	SubspaceRotationAdjust: set factor to 0.0475
ElecMinimize: Iter:  21  F: -851.962336305645749  |grad|_K:  2.673e-06  alpha:  2.983e-01  linmin:  4.912e-05  t[s]:    195.90
	FillingsUpdate:  mu: -0.101970265  nElectrons: 180.000000
	SubspaceRotationAdjust: set factor to 0.0571
ElecMinimize: Iter:  22  F: -851.962462896521401  |grad|_K:  2.075e-06  alpha:  2.608e-01  linmin:  8.393e-06  t[s]:    203.88
	FillingsUpdate:  mu: -0.097207263  nElectrons: 180.000000

Dumping 'X.fillings' ... done
Dumping 'X.wfns' ... done
Dumping 'X.force' ... done
Dumping 'X.eigenvals' ... done
	SubspaceRotationAdjust: set factor to 0.0508
ElecMinimize: Iter:  23  F: -851.962527833946865  |grad|_K:  1.523e-06  alpha:  2.210e-01  linmin:  7.153e-06  t[s]:    212.52
	FillingsUpdate:  mu: -0.100230685  nElectrons: 180.000000
	SubspaceRotationAdjust: set factor to 0.0592
ElecMinimize: Iter:  24  F: -851.962565887264986  |grad|_K:  1.173e-06  alpha:  2.404e-01  linmin:  4.554e-06  t[s]:    220.49
	FillingsUpdate:  mu: -0.103420560  nElectrons: 180.000000
	SubspaceRotationAdjust: set factor to 0.0543
ElecMinimize: Iter:  25  F: -851.962590281519965  |grad|_K:  9.898e-07  alpha:  2.598e-01  linmin:  8.506e-06  t[s]:    228.47
	FillingsUpdate:  mu: -0.101800100  nElectrons: 180.000000
	SubspaceRotationAdjust: set factor to 0.0609
ElecMinimize: Iter:  26  F: -851.962607799380407  |grad|_K:  8.090e-07  alpha:  2.619e-01  linmin:  3.359e-06  t[s]:    236.45
	FillingsUpdate:  mu: -0.099700502  nElectrons: 180.000000
	SubspaceRotationAdjust: set factor to 0.0588
ElecMinimize: Iter:  27  F: -851.962620728987531  |grad|_K:  7.797e-07  alpha:  2.893e-01  linmin:  6.352e-06  t[s]:    244.43
	FillingsUpdate:  mu: -0.101078983  nElectrons: 180.000000
	SubspaceRotationAdjust: set factor to 0.0631
ElecMinimize: Iter:  28  F: -851.962633688778510  |grad|_K:  7.406e-07  alpha:  3.121e-01  linmin:  9.444e-07  t[s]:    252.45
	FillingsUpdate:  mu: -0.102751471  nElectrons: 180.000000
	SubspaceRotationAdjust: set factor to 0.0637
ElecMinimize: Iter:  29  F: -851.962645137460981  |grad|_K:  7.514e-07  alpha:  3.055e-01  linmin:  6.001e-07  t[s]:    260.44
	FillingsUpdate:  mu: -0.101078312  nElectrons: 180.000000
	SubspaceRotationAdjust: set factor to 0.0634
ElecMinimize: Iter:  30  F: -851.962658913391806  |grad|_K:  8.627e-07  alpha:  3.571e-01  linmin:  1.810e-06  t[s]:    268.45
	FillingsUpdate:  mu: -0.099591099  nElectrons: 180.000000

Dumping 'X.fillings' ... done
Dumping 'X.wfns' ... done
Dumping 'X.force' ... done
Dumping 'X.eigenvals' ... done
	SubspaceRotationAdjust: set factor to 0.0677
ElecMinimize: Iter:  31  F: -851.962677479889408  |grad|_K:  9.209e-07  alpha:  3.653e-01  linmin:  1.044e-05  t[s]:    277.19
	FillingsUpdate:  mu: -0.102059050  nElectrons: 180.000000
	SubspaceRotationAdjust: set factor to 0.0641
ElecMinimize: Iter:  32  F: -851.962693501879244  |grad|_K:  8.362e-07  alpha:  2.768e-01  linmin: -1.773e-06  t[s]:    285.17
	FillingsUpdate:  mu: -0.103242615  nElectrons: 180.000000
	SubspaceRotationAdjust: set factor to 0.0707
ElecMinimize: Iter:  33  F: -851.962709646622670  |grad|_K:  8.655e-07  alpha:  3.380e-01  linmin:  2.533e-06  t[s]:    293.15
	FillingsUpdate:  mu: -0.100744900  nElectrons: 180.000000
	SubspaceRotationAdjust: set factor to 0.0637
ElecMinimize: Iter:  34  F: -851.962725015832575  |grad|_K:  8.339e-07  alpha:  3.002e-01  linmin:  1.778e-05  t[s]:    301.18
	FillingsUpdate:  mu: -0.100476026  nElectrons: 180.000000
	SubspaceRotationAdjust: set factor to 0.0754
ElecMinimize: Iter:  35  F: -851.962739466577773  |grad|_K:  7.257e-07  alpha:  3.047e-01  linmin:  3.423e-05  t[s]:    309.15
	FillingsUpdate:  mu: -0.102572357  nElectrons: 180.000000
	SubspaceRotationAdjust: set factor to 0.066
ElecMinimize: Iter:  36  F: -851.962749393278500  |grad|_K:  6.643e-07  alpha:  2.766e-01  linmin:  1.550e-05  t[s]:    317.16
	FillingsUpdate:  mu: -0.101956815  nElectrons: 180.000000
	SubspaceRotationAdjust: set factor to 0.0765
ElecMinimize: Iter:  37  F: -851.962758338903086  |grad|_K:  5.498e-07  alpha:  2.973e-01  linmin:  5.306e-05  t[s]:    325.13
	FillingsUpdate:  mu: -0.100362833  nElectrons: 180.000000
	SubspaceRotationAdjust: set factor to 0.0703
ElecMinimize: Iter:  38  F: -851.962764885796332  |grad|_K:  5.634e-07  alpha:  3.185e-01  linmin:  5.290e-05  t[s]:    333.10
	FillingsUpdate:  mu: -0.101464732  nElectrons: 180.000000

Dumping 'X.fillings' ... done
Dumping 'X.wfns' ... done
Dumping 'X.force' ... done
Dumping 'X.eigenvals' ... done
	SubspaceRotationAdjust: set factor to 0.072
ElecMinimize: Iter:  39  F: -851.962771012815324  |grad|_K:  4.521e-07  alpha:  2.835e-01  linmin:  2.611e-05  t[s]:    341.85
	FillingsUpdate:  mu: -0.102193800  nElectrons: 180.000000
	SubspaceRotationAdjust: set factor to 0.0731
ElecMinimize: Iter:  40  F: -851.962775379246409  |grad|_K:  4.374e-07  alpha:  3.135e-01  linmin:  3.561e-05  t[s]:    349.83
	FillingsUpdate:  mu: -0.101000434  nElectrons: 180.000000
	SubspaceRotationAdjust: set factor to 0.0664
ElecMinimize: Iter:  41  F: -851.962779350012852  |grad|_K:  4.211e-07  alpha:  3.045e-01  linmin:  2.725e-05  t[s]:    357.84
	FillingsUpdate:  mu: -0.100857069  nElectrons: 180.000000
	SubspaceRotationAdjust: set factor to 0.0728
ElecMinimize: Iter:  42  F: -851.962783429323622  |grad|_K:  4.022e-07  alpha:  3.375e-01  linmin:  2.852e-05  t[s]:    365.82
	FillingsUpdate:  mu: -0.101824318  nElectrons: 180.000000
	SubspaceRotationAdjust: set factor to 0.0667
ElecMinimize: Iter:  43  F: -851.962786750296232  |grad|_K:  3.742e-07  alpha:  3.012e-01  linmin:  1.183e-05  t[s]:    373.79
	FillingsUpdate:  mu: -0.101435623  nElectrons: 180.000000
	SubspaceRotationAdjust: set factor to 0.0701
ElecMinimize: Iter:  44  F: -851.962789703489648  |grad|_K:  3.455e-07  alpha:  3.092e-01  linmin:  1.778e-05  t[s]:    381.78
	FillingsUpdate:  mu: -0.100794452  nElectrons: 180.000000
	SubspaceRotationAdjust: set factor to 0.0703
ElecMinimize: Iter:  45  F: -851.962792584669614  |grad|_K:  3.517e-07  alpha:  3.540e-01  linmin:  2.707e-05  t[s]:    389.82
	FillingsUpdate:  mu: -0.101487795  nElectrons: 180.000000
	SubspaceRotationAdjust: set factor to 0.0693
ElecMinimize: Iter:  46  F: -851.962795040211859  |grad|_K:  3.175e-07  alpha:  2.911e-01  linmin: -6.892e-07  t[s]:    397.82
	FillingsUpdate:  mu: -0.101714406  nElectrons: 180.000000

Dumping 'X.fillings' ... done
Dumping 'X.wfns' ... done
Dumping 'X.force' ... done
Dumping 'X.eigenvals' ... done
	SubspaceRotationAdjust: set factor to 0.0756
ElecMinimize: Iter:  47  F: -851.962797607990751  |grad|_K:  3.320e-07  alpha:  3.732e-01  linmin:  9.713e-06  t[s]:    406.62
	FillingsUpdate:  mu: -0.100892642  nElectrons: 180.000000
	SubspaceRotationAdjust: set factor to 0.0722
ElecMinimize: Iter:  48  F: -851.962799932957296  |grad|_K:  3.226e-07  alpha:  3.088e-01  linmin:  1.464e-05  t[s]:    414.65
	FillingsUpdate:  mu: -0.101156524  nElectrons: 180.000000
	SubspaceRotationAdjust: set factor to 0.0786
ElecMinimize: Iter:  49  F: -851.962802518019771  |grad|_K:  3.340e-07  alpha:  3.642e-01  linmin:  1.274e-05  t[s]:    422.66
	FillingsUpdate:  mu: -0.101853223  nElectrons: 180.000000
	SubspaceRotationAdjust: set factor to 0.0795
ElecMinimize: Iter:  50  F: -851.962805230649565  |grad|_K:  3.492e-07  alpha:  3.565e-01  linmin:  1.615e-05  t[s]:    430.65
	FillingsUpdate:  mu: -0.101144160  nElectrons: 180.000000
	SubspaceRotationAdjust: set factor to 0.0768
ElecMinimize: Iter:  51  F: -851.962807746442763  |grad|_K:  3.224e-07  alpha:  3.023e-01  linmin:  1.060e-05  t[s]:    438.72
	FillingsUpdate:  mu: -0.101137117  nElectrons: 180.000000
	SubspaceRotationAdjust: set factor to 0.0863
ElecMinimize: Iter:  52  F: -851.962810100208003  |grad|_K:  2.986e-07  alpha:  3.318e-01  linmin:  1.323e-05  t[s]:    446.72
	FillingsUpdate:  mu: -0.101827673  nElectrons: 180.000000
	SubspaceRotationAdjust: set factor to 0.0826
ElecMinimize: Iter:  53  F: -851.962812076364116  |grad|_K:  3.014e-07  alpha:  3.246e-01  linmin: -1.568e-06  t[s]:    454.71
	FillingsUpdate:  mu: -0.101264681  nElectrons: 180.000000
	SubspaceRotationAdjust: set factor to 0.0839
ElecMinimize: Iter:  54  F: -851.962813877623148  |grad|_K:  2.569e-07  alpha:  2.904e-01  linmin:  9.789e-06  t[s]:    462.70
	FillingsUpdate:  mu: -0.101165273  nElectrons: 180.000000

Dumping 'X.fillings' ... done
Dumping 'X.wfns' ... done
Dumping 'X.force' ... done
Dumping 'X.eigenvals' ... done
	SubspaceRotationAdjust: set factor to 0.0925
ElecMinimize: Iter:  55  F: -851.962815369644545  |grad|_K:  2.354e-07  alpha:  3.309e-01  linmin: -2.168e-05  t[s]:    471.40
	FillingsUpdate:  mu: -0.101661175  nElectrons: 180.000000
	SubspaceRotationAdjust: set factor to 0.0907
ElecMinimize: Iter:  56  F: -851.962816503158137  |grad|_K:  2.211e-07  alpha:  2.993e-01  linmin: -9.989e-06  t[s]:    479.43
	FillingsUpdate:  mu: -0.101194050  nElectrons: 180.000000
	SubspaceRotationAdjust: set factor to 0.0889
ElecMinimize: Iter:  57  F: -851.962817484178686  |grad|_K:  2.060e-07  alpha:  2.932e-01  linmin: -1.877e-05  t[s]:    487.42
	FillingsUpdate:  mu: -0.101255604  nElectrons: 180.000000
	SubspaceRotationAdjust: set factor to 0.0984
ElecMinimize: Iter:  58  F: -851.962818519948996  |grad|_K:  1.942e-07  alpha:  3.566e-01  linmin: -1.854e-05  t[s]:    495.42
	FillingsUpdate:  mu: -0.101565967  nElectrons: 180.000000
	SubspaceRotationAdjust: set factor to 0.1
ElecMinimize: Iter:  59  F: -851.962819381000145  |grad|_K:  1.933e-07  alpha:  3.336e-01  linmin: -4.751e-06  t[s]:    503.42
	FillingsUpdate:  mu: -0.101042432  nElectrons: 180.000000
	SubspaceRotationAdjust: set factor to 0.0905
ElecMinimize: Iter:  60  F: -851.962820136843675  |grad|_K:  1.961e-07  alpha:  2.957e-01  linmin: -8.303e-06  t[s]:    511.47
	FillingsUpdate:  mu: -0.101366558  nElectrons: 180.000000
	SubspaceRotationAdjust: set factor to 0.0893
ElecMinimize: Iter:  61  F: -851.962821020169940  |grad|_K:  1.897e-07  alpha:  3.361e-01  linmin: -1.267e-05  t[s]:    519.45
	FillingsUpdate:  mu: -0.101354481  nElectrons: 180.000000
	SubspaceRotationAdjust: set factor to 0.0959
ElecMinimize: Iter:  62  F: -851.962821896241508  |grad|_K:  1.752e-07  alpha:  3.554e-01  linmin: -1.724e-05  t[s]:    527.45
	FillingsUpdate:  mu: -0.101004129  nElectrons: 180.000000

Dumping 'X.fillings' ... done
Dumping 'X.wfns' ... done
Dumping 'X.force' ... done
Dumping 'X.eigenvals' ... done
	SubspaceRotationAdjust: set factor to 0.0933
ElecMinimize: Iter:  63  F: -851.962822629768425  |grad|_K:  1.812e-07  alpha:  3.490e-01  linmin: -1.046e-05  t[s]:    536.19
	FillingsUpdate:  mu: -0.101498409  nElectrons: 180.000000
	SubspaceRotationAdjust: set factor to 0.0839
ElecMinimize: Iter:  64  F: -851.962823325637260  |grad|_K:  1.779e-07  alpha:  3.101e-01  linmin: -1.426e-06  t[s]:    544.18
	FillingsUpdate:  mu: -0.101263152  nElectrons: 180.000000
	SubspaceRotationAdjust: set factor to 0.0838
ElecMinimize: Iter:  65  F: -851.962824074683112  |grad|_K:  1.710e-07  alpha:  3.462e-01  linmin:  4.824e-06  t[s]:    552.17
	FillingsUpdate:  mu: -0.101241185  nElectrons: 180.000000
	SubspaceRotationAdjust: set factor to 0.09
ElecMinimize: Iter:  66  F: -851.962824868521579  |grad|_K:  1.745e-07  alpha:  3.986e-01  linmin:  3.591e-05  t[s]:    560.14
	FillingsUpdate:  mu: -0.101632157  nElectrons: 180.000000
	SubspaceRotationAdjust: set factor to 0.0868
ElecMinimize: Iter:  67  F: -851.962825581175935  |grad|_K:  1.762e-07  alpha:  3.435e-01  linmin:  5.270e-05  t[s]:    568.16
	FillingsUpdate:  mu: -0.101288349  nElectrons: 180.000000
	SubspaceRotationAdjust: set factor to 0.0852
ElecMinimize: Iter:  68  F: -851.962826188558665  |grad|_K:  1.605e-07  alpha:  2.863e-01  linmin:  6.587e-05  t[s]:    576.16
	FillingsUpdate:  mu: -0.101303229  nElectrons: 180.000000
	SubspaceRotationAdjust: set factor to 0.0948
ElecMinimize: Iter:  69  F: -851.962826697660034  |grad|_K:  1.439e-07  alpha:  2.924e-01  linmin:  1.884e-04  t[s]:    584.18
	FillingsUpdate:  mu: -0.101508043  nElectrons: 180.000000
	SubspaceRotationAdjust: set factor to 0.099
ElecMinimize: Iter:  70  F: -851.962827017923473  |grad|_K:  1.270e-07  alpha:  2.309e-01  linmin:  4.426e-05  t[s]:    592.18
	FillingsUpdate:  mu: -0.101391923  nElectrons: 180.000000

Dumping 'X.fillings' ... done
Dumping 'X.wfns' ... done
Dumping 'X.force' ... done
Dumping 'X.eigenvals' ... done
	SubspaceRotationAdjust: set factor to 0.113
ElecMinimize: Iter:  71  F: -851.962827261963639  |grad|_K:  1.131e-07  alpha:  2.235e-01  linmin:  1.244e-04  t[s]:    600.94
	FillingsUpdate:  mu: -0.101295868  nElectrons: 180.000000
	SubspaceRotationAdjust: set factor to 0.13
ElecMinimize: Iter:  72  F: -851.962827471733249  |grad|_K:  1.142e-07  alpha:  2.434e-01  linmin:  1.801e-04  t[s]:    608.94
	FillingsUpdate:  mu: -0.101455283  nElectrons: 180.000000
	SubspaceRotationAdjust: set factor to 0.148
ElecMinimize: Iter:  73  F: -851.962827646594519  |grad|_K:  1.101e-07  alpha:  1.993e-01  linmin:  5.519e-05  t[s]:    616.94
	FillingsUpdate:  mu: -0.101406202  nElectrons: 180.000000
	SubspaceRotationAdjust: set factor to 0.191
ElecMinimize: Iter:  74  F: -851.962827822778650  |grad|_K:  1.093e-07  alpha:  2.146e-01  linmin:  5.287e-05  t[s]:    624.95
	FillingsUpdate:  mu: -0.101244221  nElectrons: 180.000000
	SubspaceRotationAdjust: set factor to 0.216
ElecMinimize: Iter:  75  F: -851.962827988348977  |grad|_K:  1.220e-07  alpha:  2.052e-01  linmin:  1.176e-04  t[s]:    632.93
	FillingsUpdate:  mu: -0.101427561  nElectrons: 180.000000
	SubspaceRotationAdjust: set factor to 0.238
ElecMinimize: Iter:  76  F: -851.962828139649673  |grad|_K:  1.258e-07  alpha:  1.500e-01  linmin:  1.735e-05  t[s]:    640.94
	FillingsUpdate:  mu: -0.101286941  nElectrons: 180.000000
	SubspaceRotationAdjust: set factor to 0.297
ElecMinimize: Iter:  77  F: -851.962828316089372  |grad|_K:  1.251e-07  alpha:  1.635e-01  linmin: -4.435e-06  t[s]:    648.94
	FillingsUpdate:  mu: -0.101308292  nElectrons: 180.000000
	SubspaceRotationAdjust: set factor to 0.357
ElecMinimize: Iter:  78  F: -851.962828512242481  |grad|_K:  1.328e-07  alpha:  1.838e-01  linmin:  1.624e-05  t[s]:    656.93
	FillingsUpdate:  mu: -0.101427363  nElectrons: 180.000000

Dumping 'X.fillings' ... done
Dumping 'X.wfns' ... done
Dumping 'X.force' ... done
Dumping 'X.eigenvals' ... done
	SubspaceRotationAdjust: set factor to 0.36
ElecMinimize: Iter:  79  F: -851.962828706856953  |grad|_K:  1.473e-07  alpha:  1.622e-01  linmin:  2.926e-05  t[s]:    665.71
	FillingsUpdate:  mu: -0.101174064  nElectrons: 180.000000
	SubspaceRotationAdjust: set factor to 0.299
ElecMinimize: Iter:  80  F: -851.962828850545293  |grad|_K:  1.660e-07  alpha:  9.766e-02  linmin: -6.438e-06  t[s]:    673.72
	FillingsUpdate:  mu: -0.101408778  nElectrons: 180.000000
	SubspaceRotationAdjust: set factor to 0.349
ElecMinimize: Iter:  81  F: -851.962828995175755  |grad|_K:  1.327e-07  alpha:  7.704e-02  linmin: -1.384e-05  t[s]:    681.74
	FillingsUpdate:  mu: -0.101355356  nElectrons: 180.000000
	SubspaceRotationAdjust: set factor to 0.471
ElecMinimize: Iter:  82  F: -851.962829162051207  |grad|_K:  1.242e-07  alpha:  1.417e-01  linmin:  1.047e-04  t[s]:    689.80
	FillingsUpdate:  mu: -0.101202449  nElectrons: 180.000000
	SubspaceRotationAdjust: set factor to 0.39
ElecMinimize: Iter:  83  F: -851.962829291948196  |grad|_K:  1.527e-07  alpha:  1.265e-01  linmin: -1.370e-05  t[s]:    697.80
	FillingsUpdate:  mu: -0.101464378  nElectrons: 180.000000
	SubspaceRotationAdjust: set factor to 0.371
ElecMinimize: Iter:  84  F: -851.962829376588616  |grad|_K:  1.414e-07  alpha:  5.392e-02  linmin:  1.090e-05  t[s]:    705.79
	FillingsUpdate:  mu: -0.101362142  nElectrons: 180.000000
	SubspaceRotationAdjust: set factor to 0.512
ElecMinimize: Iter:  85  F: -851.962829517756290  |grad|_K:  1.177e-07  alpha:  1.025e-01  linmin: -7.859e-05  t[s]:    713.79
	FillingsUpdate:  mu: -0.101208104  nElectrons: 180.000000
	SubspaceRotationAdjust: set factor to 0.396
ElecMinimize: Iter:  86  F: -851.962829654925031  |grad|_K:  1.562e-07  alpha:  1.414e-01  linmin: -1.009e-04  t[s]:    721.84
	FillingsUpdate:  mu: -0.101471427  nElectrons: 180.000000

Dumping 'X.fillings' ... done
Dumping 'X.wfns' ... done
Dumping 'X.force' ... done
Dumping 'X.eigenvals' ... done
	SubspaceRotationAdjust: set factor to 0.333
ElecMinimize: Iter:  87  F: -851.962829727917210  |grad|_K:  1.335e-07  alpha:  4.311e-02  linmin:  5.919e-05  t[s]:    730.42
	FillingsUpdate:  mu: -0.101395571  nElectrons: 180.000000
	SubspaceRotationAdjust: set factor to 0.499
ElecMinimize: Iter:  88  F: -851.962829882324172  |grad|_K:  1.172e-07  alpha:  1.292e-01  linmin: -5.926e-05  t[s]:    738.42
	FillingsUpdate:  mu: -0.101113791  nElectrons: 180.000000
	SubspaceRotationAdjust: set factor to 0.327
ElecMinimize: Iter:  89  F: -851.962830000612030  |grad|_K:  1.976e-07  alpha:  1.253e-01  linmin: -2.267e-05  t[s]:    746.40
	FillingsUpdate:  mu: -0.101424685  nElectrons: 180.000000
	SubspaceRotationAdjust: set factor to 0.274
ElecMinimize: Iter:  90  F: -851.962830135409035  |grad|_K:  1.268e-07  alpha:  5.139e-02  linmin:  5.910e-05  t[s]:    754.41
ElecMinimize: 	Predicted alpha/alphaT>3.000000, increasing alphaT to 1.541681e-01.
	FillingsUpdate:  mu: -0.101417851  nElectrons: 180.000000
	SubspaceRotationAdjust: set factor to 0.346
ElecMinimize: Iter:  91  F: -851.962830394214620  |grad|_K:  1.322e-07  alpha:  2.348e-01  linmin: -1.445e-04  t[s]:    764.70
	FillingsUpdate:  mu: -0.101031560  nElectrons: 180.000000
	SubspaceRotationAdjust: set factor to 0.243
ElecMinimize: Iter:  92  F: -851.962830688377949  |grad|_K:  2.321e-07  alpha:  2.351e-01  linmin: -6.448e-05  t[s]:    772.68
	FillingsUpdate:  mu: -0.101487389  nElectrons: 180.000000
	SubspaceRotationAdjust: set factor to 0.173
ElecMinimize: Iter:  93  F: -851.962830940997947  |grad|_K:  1.746e-07  alpha:  6.520e-02  linmin: -7.634e-05  t[s]:    780.71
ElecMinimize: 	Predicted alpha/alphaT>3.000000, increasing alphaT to 1.955906e-01.
	FillingsUpdate:  mu: -0.101551440  nElectrons: 180.000000
	SubspaceRotationAdjust: set factor to 0.207
ElecMinimize: Iter:  94  F: -851.962831545837957  |grad|_K:  2.356e-07  alpha:  3.682e-01  linmin:  7.210e-04  t[s]:    791.00
	FillingsUpdate:  mu: -0.101512696  nElectrons: 180.000000

Dumping 'X.fillings' ... done
Dumping 'X.wfns' ... done
Dumping 'X.force' ... done
Dumping 'X.eigenvals' ... done
	SubspaceRotationAdjust: set factor to 0.252
ElecMinimize: Iter:  95  F: -851.962831592151815  |grad|_K:  2.344e-07  alpha:  9.740e-03  linmin: -5.328e-04  t[s]:    799.82
ElecMinimize: 	Predicted alpha/alphaT>3.000000, increasing alphaT to 2.922113e-02.
	FillingsUpdate:  mu: -0.101119666  nElectrons: 180.000000
	SubspaceRotationAdjust: set factor to 0.241
ElecMinimize: Iter:  96  F: -851.962831830682831  |grad|_K:  2.283e-07  alpha:  4.958e-02  linmin:  2.147e-04  t[s]:    810.13
	FillingsUpdate:  mu: -0.101069602  nElectrons: 180.000000
	SubspaceRotationAdjust: set factor to 0.255
ElecMinimize: Iter:  97  F: -851.962831929927688  |grad|_K:  2.286e-07  alpha:  2.992e-02  linmin: -4.980e-05  t[s]:    818.12
	FillingsUpdate:  mu: -0.101201849  nElectrons: 180.000000
	SubspaceRotationAdjust: set factor to 0.325
ElecMinimize: Iter:  98  F: -851.962832021424219  |grad|_K:  1.955e-07  alpha:  2.468e-02  linmin:  2.121e-05  t[s]:    826.11
ElecMinimize: Converged (|Delta F|<1.000000e-07 for 2 iters).
Setting wave functions to eigenvectors of Hamiltonian

# Ionic positions in lattice coordinates:
ion Na   0.000000000000000   0.000000000000000   0.187800000000000 1
ion Na   0.500000000000000   0.500000000000000   0.220660000000000 1
ion Na   0.000000000000000   0.000000000000000   0.253520000000000 1
ion Na   0.500000000000000   0.500000000000000   0.286390000000000 1
ion Na   0.000000000000000   0.000000000000000   0.319250000000000 1
ion Na   0.500000000000000   0.500000000000000   0.352110000000000 1
ion Na   0.000000000000000   0.000000000000000   0.384980000000000 1
ion Na   0.500000000000000   0.500000000000000   0.417840000000000 1
ion Na   0.000000000000000   0.000000000000000   0.450700000000000 1
ion Na   0.500000000000000   0.500000000000000   0.483570000000000 1
ion Na   0.000000000000000   0.000000000000000   0.516430000000000 1
ion Na   0.500000000000000   0.500000000000000   0.549300000000000 1
ion Na   0.000000000000000   0.000000000000000   0.582160000000000 1
ion Na   0.500000000000000   0.500000000000000   0.615020000000000 1
ion Na   0.000000000000000   0.000000000000000   0.647890000000000 1
ion Na   0.500000000000000   0.500000000000000   0.680750000000000 1
ion Na   0.000000000000000   0.000000000000000   0.713610000000000 1
ion Na   0.500000000000000   0.500000000000000   0.746480000000000 1
ion Na   0.000000000000000   0.000000000000000   0.779340000000000 1
ion Na   0.500000000000000   0.500000000000000   0.812200000000000 1

# Forces in Lattice coordinates:
force Na   0.000000000000000  -0.000000000000000  -0.038389649101847 1
force Na  -0.000000000000000  -0.000000000000000   0.034011240696153 1
force Na   0.000000000000000   0.000000000000000   0.011012413255274 1
force Na   0.000000000000000   0.000000000000000   0.013264608332852 1
force Na  -0.000000000000000   0.000000000000000   0.026753948021155 1
force Na  -0.000000000000000  -0.000000000000000   0.026532282496066 1
force Na  -0.000000000000000  -0.000000000000000   0.024345770880212 1
force Na   0.000000000000000   0.000000000000000   0.025292633055279 1
force Na  -0.000000000000000   0.000000000000000   0.018128975642543 1
force Na  -0.000000000000000   0.000000000000000   0.005794252386094 1
force Na  -0.000000000000000  -0.000000000000000  -0.005794252386094 1
force Na  -0.000000000000000   0.000000000000000  -0.018128975642998 1
force Na   0.000000000000000   0.000000000000000  -0.025292633054369 1
force Na  -0.000000000000000   0.000000000000000  -0.024345770880212 1
force Na  -0.000000000000000   0.000000000000000  -0.026532282496066 1
force Na  -0.000000000000000   0.000000000000000  -0.026753948021155 1
force Na   0.000000000000000   0.000000000000000  -0.013264608329214 1
force Na   0.000000000000000  -0.000000000000000  -0.011012413251637 1
force Na  -0.000000000000000   0.000000000000000  -0.034011240696153 1
force Na   0.000000000000000  -0.000000000000000   0.038389649101847 1

# Energy components:
   Eewald =   -43066.2361807333363686
       EH =   -42384.2444989101131796
     Eloc =    84548.6466222377202939
      Enl =     -258.5438022476350852
   Epulay =       -0.0000164281294563
      Exc =     -125.2403179700333453
       KE =      433.7329728405064202
-------------------------------------
     Etot =     -851.8852212110280107
       TS =        0.0776108103961582
-------------------------------------
        F =     -851.9628320214242194

IonicMinimize: Iter:   0  F: -851.962832021424219  |grad|_K:  1.166e-04  t[s]:    827.25
IonicMinimize: None of the convergence criteria satisfied after 0 iterations.

#--- Lowdin population analysis ---
# oxidation-state Na +0.074 +0.049 +0.047 +0.056 +0.053 +0.054 +0.055 +0.055 +0.056 +0.056 +0.056 +0.056 +0.055 +0.055 +0.054 +0.053 +0.056 +0.047 +0.049 +0.074


Dumping 'X.fillings' ... done
Dumping 'X.wfns' ... done
Dumping 'X.ionpos' ... done
Dumping 'X.lattice' ... done
Dumping 'X.n' ... done
Dumping 'X.eigenvals' ... done
Dumping 'X.eigStats' ... 
	eMin: -2.063296 at state 0 ( [ +0.000000 +0.000000 +0.000000 ] spin 0 )
	HOMO: -0.101650 at state 17 ( [ +0.272727 +0.454545 +0.000000 ] spin 0 )
	mu  : -0.101202
	LUMO: -0.101079 at state 14 ( [ +0.181818 +0.454545 +0.000000 ] spin 0 )
	eMax: +0.005311 at state 11 ( [ +0.181818 +0.181818 +0.000000 ] spin 0 )
	HOMO-LUMO gap: +0.000571
	Optical gap  : +0.003185 at state 5 ( [ +0.000000 +0.454545 +0.000000 ] spin 0 )
Dumping 'X.dos' ... done.
End date and time: Thu Nov  9 01:48:03 2023  (Duration: 0-0:13:48.49)
Done!

*************** JDFTx 1.7.0  ***************

Start date and time: Thu Nov  9 01:48:06 2023
Executable jdftx with command-line: -m -i X.in -o X.out
Running on hosts (process indices):  ac0119 (0-20)
Divided in process groups (process indices):  0 (0)  1 (1)  2 (2)  3 (3)  4 (4)  5 (5)  6 (6)  7 (7)  8 (8)  9 (9)  10 (10)  11 (11)  12 (12)  13 (13)  14 (14)  15 (15)  16 (16)  17 (17)  18 (18)  19 (19)  20 (20)
Resource initialization completed at t[s]:      0.02
Run totals: 21 processes, 21 threads, 0 GPUs


Input parsed successfully to the following command list (including defaults):

basis kpoint-dependent
cache-projectors no
coords-type Lattice
core-overlap-check vector
coulomb-interaction Slab 001
coulomb-truncation-embed 0 0 0.5
davidson-band-ratio 1.1
density-of-states Etol 1.000000e-06 Esigma 0.000000e+00 \
		Complete \
	Total \
		Occupied \
	Total
dump End State IonicPositions Lattice ElecDensity CoreDensity EigStats DOS
dump Electronic State Forces
dump Ionic State IonicPositions Forces Lattice DOS
dump-interval Electronic 8
dump-interval Ionic 4
dump-name X.$var
elec-cutoff 30
elec-eigen-algo Davidson
elec-ex-corr gga-PBE
elec-smearing Fermi 0.0095
electronic-minimize  \
	dirUpdateScheme      FletcherReeves \
	linminMethod         DirUpdateRecommended \
	nIterations          2000 \
	history              15 \
	knormThreshold       0 \
	energyDiffThreshold  1e-07 \
	nEnergyDiff          2 \
	alphaTstart          1 \
	alphaTmin            1e-10 \
	updateTestStepSize   yes \
	alphaTreduceFactor   0.1 \
	alphaTincreaseFactor 3 \
	nAlphaAdjustMax      3 \
	wolfeEnergy          0.0001 \
	wolfeGradient        0.9 \
	fdTest               no
exchange-regularization WignerSeitzTruncated
fluid None
fluid-ex-corr (null) lda-PZ
fluid-gummel-loop 10 1.000000e-05
fluid-minimize  \
	dirUpdateScheme      PolakRibiere \
	linminMethod         DirUpdateRecommended \
	nIterations          100 \
	history              15 \
	knormThreshold       0 \
	energyDiffThreshold  0 \
	nEnergyDiff          2 \
	alphaTstart          1 \
	alphaTmin            1e-10 \
	updateTestStepSize   yes \
	alphaTreduceFactor   0.1 \
	alphaTincreaseFactor 3 \
	nAlphaAdjustMax      3 \
	wolfeEnergy          0.0001 \
	wolfeGradient        0.9 \
	fdTest               no
fluid-solvent H2O 55.338 ScalarEOS \
	epsBulk 78.4 \
	pMol 0.92466 \
	epsInf 1.77 \
	Pvap 1.06736e-10 \
	sigmaBulk 4.62e-05 \
	Rvdw 2.61727 \
	Res 1.42 \
	tauNuc 343133 \
	poleEl 15 7 1
forces-output-coords Positions
ion Na   0.000000000000000   0.000000000000000   0.187800000000000 1
ion Na   0.500000000000000   0.500000000000000   0.220660000000000 1
ion Na   0.000000000000000   0.000000000000000   0.253520000000000 1
ion Na   0.500000000000000   0.500000000000000   0.286390000000000 1
ion Na   0.000000000000000   0.000000000000000   0.319250000000000 1
ion Na   0.500000000000000   0.500000000000000   0.352110000000000 1
ion Na   0.000000000000000   0.000000000000000   0.384980000000000 1
ion Na   0.500000000000000   0.500000000000000   0.417840000000000 1
ion Na   0.000000000000000   0.000000000000000   0.450700000000000 1
ion Na   0.500000000000000   0.500000000000000   0.483570000000000 1
ion Na   0.000000000000000   0.000000000000000   0.516430000000000 1
ion Na   0.500000000000000   0.500000000000000   0.549300000000000 1
ion Na   0.000000000000000   0.000000000000000   0.582160000000000 1
ion Na   0.500000000000000   0.500000000000000   0.615020000000000 1
ion Na   0.000000000000000   0.000000000000000   0.647890000000000 1
ion Na   0.500000000000000   0.500000000000000   0.680750000000000 1
ion Na   0.000000000000000   0.000000000000000   0.713610000000000 1
ion Na   0.500000000000000   0.500000000000000   0.746480000000000 1
ion Na   0.000000000000000   0.000000000000000   0.779340000000000 1
ion Na   0.500000000000000   0.500000000000000   0.812200000000000 1
ion-species SG15/$ID_ONCV_PBE.upf
ion-width 0
ionic-minimize  \
	dirUpdateScheme      L-BFGS \
	linminMethod         DirUpdateRecommended \
	nIterations          0 \
	history              15 \
	knormThreshold       0.0001 \
	energyDiffThreshold  1e-06 \
	nEnergyDiff          2 \
	alphaTstart          1 \
	alphaTmin            1e-10 \
	updateTestStepSize   yes \
	alphaTreduceFactor   0.1 \
	alphaTincreaseFactor 3 \
	nAlphaAdjustMax      3 \
	wolfeEnergy          0.0001 \
	wolfeGradient        0.9 \
	fdTest               no
kpoint   0.000000000000   0.000000000000   0.000000000000  1.00000000000000
kpoint-folding 11 11 1 
latt-move-scale 1 1 1
latt-scale 1 1 1 
lattice  \
	   7.936714821600003   -0.000000000000000   -0.000000000000000  \
	   0.000000000000000    7.936714821600003   -0.000000000000000  \
	   0.000000000000000    0.000000000000000  120.752235215999988 
lattice-minimize  \
	dirUpdateScheme      L-BFGS \
	linminMethod         DirUpdateRecommended \
	nIterations          0 \
	history              15 \
	knormThreshold       0 \
	energyDiffThreshold  1e-06 \
	nEnergyDiff          2 \
	alphaTstart          1 \
	alphaTmin            1e-10 \
	updateTestStepSize   yes \
	alphaTreduceFactor   0.1 \
	alphaTincreaseFactor 3 \
	nAlphaAdjustMax      3 \
	wolfeEnergy          0.0001 \
	wolfeGradient        0.9 \
	fdTest               no
lcao-params -1 1e-06 0.0095
pcm-variant GLSSA13
spintype no-spin
subspace-rotation-factor 1 yes
symmetries automatic
symmetry-threshold 0.0001
wavefunction read X.wfns 100 20.000000



---------- Setting up symmetries ----------

Found 16 point-group symmetries of the bravais lattice
Found 16 space-group symmetries with basis
Applied RMS atom displacement 0 bohrs to make symmetries exact.

---------- Initializing the Grid ----------
R = 
[      7.93671            0            0  ]
[            0      7.93671            0  ]
[            0            0      120.752  ]
unit cell volume = 7606.36
G =
[   0.791661          0          0  ]
[         -0   0.791661          0  ]
[          0         -0  0.0520337  ]
Minimum fftbox size, Smin = [  40  40  596  ]
Chosen fftbox size, S = [  40  40  600  ]

---------- Exchange Correlation functional ----------
Initalized PBE GGA exchange.
Initalized PBE GGA correlation.

---------- Setting up pseudopotentials ----------
Width of ionic core gaussian charges (only for fluid interactions / plotting) set to 0

Reading pseudopotential file '/net/software/testing/software/jdftx/1.7.0-foss-2021b-mkl/share/jdftx/pseudopotentials/SG15/Na_ONCV_PBE.upf':
  'Na' pseudopotential, 'PBE' functional
  Generated using ONCVPSP code by D. R. Hamann
  Author: Martin Schlipf and Francois Gygi  Date: 150915.
[...]

Dumping 'X.fillings' ... done
Dumping 'X.wfns' ... done
Dumping 'X.ionpos' ... done
Dumping 'X.force' ... done
Dumping 'X.eigenvals' ... done
	SubspaceRotationAdjust: set factor to 0.0569
ElecMinimize: Iter:   7  F: -851.978819735414959  |grad|_K:  2.309e-07  alpha:  6.860e-01  linmin: -1.604e-06  t[s]:   2745.40
	FillingsUpdate:  mu: -0.097415029  nElectrons: 180.000000
	SubspaceRotationAdjust: set factor to 0.0651
ElecMinimize: Iter:   8  F: -851.978831895044664  |grad|_K:  3.039e-07  alpha:  8.446e-01  linmin:  1.204e-07  t[s]:   2783.83
	FillingsUpdate:  mu: -0.097343336  nElectrons: 180.000000
	SubspaceRotationAdjust: set factor to 0.0722
ElecMinimize: Iter:   9  F: -851.978849003811547  |grad|_K:  3.325e-07  alpha:  6.864e-01  linmin: -5.272e-09  t[s]:   2821.72
	FillingsUpdate:  mu: -0.097229779  nElectrons: 180.000000
	SubspaceRotationAdjust: set factor to 0.0779
ElecMinimize: Iter:  10  F: -851.978865858952418  |grad|_K:  3.094e-07  alpha:  5.648e-01  linmin:  4.539e-08  t[s]:   2860.16
	FillingsUpdate:  mu: -0.097285042  nElectrons: 180.000000
	SubspaceRotationAdjust: set factor to 0.0814
ElecMinimize: Iter:  11  F: -851.978879769540640  |grad|_K:  2.773e-07  alpha:  5.387e-01  linmin:  2.224e-07  t[s]:   2898.54
	FillingsUpdate:  mu: -0.096755109  nElectrons: 180.000000
	SubspaceRotationAdjust: set factor to 0.0815
ElecMinimize: Iter:  12  F: -851.978890664603227  |grad|_K:  2.349e-07  alpha:  5.252e-01  linmin:  2.337e-07  t[s]:   2936.83
	FillingsUpdate:  mu: -0.097891355  nElectrons: 180.000000
	SubspaceRotationAdjust: set factor to 0.0705
ElecMinimize: Iter:  13  F: -851.978897063602744  |grad|_K:  1.917e-07  alpha:  4.298e-01  linmin: -5.239e-07  t[s]:   2974.92
	FillingsUpdate:  mu: -0.096539171  nElectrons: 180.000000
	SubspaceRotationAdjust: set factor to 0.0469
ElecMinimize: Iter:  14  F: -851.978899954115832  |grad|_K:  1.448e-07  alpha:  2.915e-01  linmin:  2.227e-09  t[s]:   3012.92
	FillingsUpdate:  mu: -0.097288437  nElectrons: 180.000000

Dumping 'X.fillings' ... done
Dumping 'X.wfns' ... done
Dumping 'X.ionpos' ... done
Dumping 'X.force' ... done
Dumping 'X.eigenvals' ... done
	SubspaceRotationAdjust: set factor to 0.0422
ElecMinimize: Iter:  15  F: -851.978901836976547  |grad|_K:  9.808e-08  alpha:  3.325e-01  linmin: -1.469e-06  t[s]:   3055.03
	FillingsUpdate:  mu: -0.097457484  nElectrons: 180.000000
	SubspaceRotationAdjust: set factor to 0.0465
ElecMinimize: Iter:  16  F: -851.978902899138689  |grad|_K:  7.902e-08  alpha:  4.087e-01  linmin: -9.683e-06  t[s]:   3093.43
	FillingsUpdate:  mu: -0.097001741  nElectrons: 180.000000
	SubspaceRotationAdjust: set factor to 0.0439
ElecMinimize: Iter:  17  F: -851.978903629077422  |grad|_K:  6.329e-08  alpha:  4.330e-01  linmin:  5.092e-06  t[s]:   3131.32
	FillingsUpdate:  mu: -0.097133417  nElectrons: 180.000000
	SubspaceRotationAdjust: set factor to 0.0507
ElecMinimize: Iter:  18  F: -851.978904148760193  |grad|_K:  5.436e-08  alpha:  4.810e-01  linmin: -1.356e-05  t[s]:   3169.39
	FillingsUpdate:  mu: -0.097313045  nElectrons: 180.000000
	SubspaceRotationAdjust: set factor to 0.057
ElecMinimize: Iter:  19  F: -851.978904508059827  |grad|_K:  4.712e-08  alpha:  4.511e-01  linmin:  4.845e-05  t[s]:   3207.45
	FillingsUpdate:  mu: -0.097161768  nElectrons: 180.000000
	SubspaceRotationAdjust: set factor to 0.0644
ElecMinimize: Iter:  20  F: -851.978904783055782  |grad|_K:  4.328e-08  alpha:  4.586e-01  linmin:  1.096e-04  t[s]:   3245.34
	FillingsUpdate:  mu: -0.097274441  nElectrons: 180.000000
	SubspaceRotationAdjust: set factor to 0.0755
ElecMinimize: Iter:  21  F: -851.978905041800999  |grad|_K:  4.170e-08  alpha:  5.121e-01  linmin: -1.055e-04  t[s]:   3283.15
	FillingsUpdate:  mu: -0.097346323  nElectrons: 180.000000
	SubspaceRotationAdjust: set factor to 0.0857
ElecMinimize: Iter:  22  F: -851.978905294277865  |grad|_K:  4.201e-08  alpha:  5.341e-01  linmin:  2.997e-06  t[s]:   3321.27
	FillingsUpdate:  mu: -0.097209131  nElectrons: 180.000000

Dumping 'X.fillings' ... done
Dumping 'X.wfns' ... done
Dumping 'X.ionpos' ... done
Dumping 'X.force' ... done
Dumping 'X.eigenvals' ... done
	SubspaceRotationAdjust: set factor to 0.0894
ElecMinimize: Iter:  23  F: -851.978905506382034  |grad|_K:  3.962e-08  alpha:  4.457e-01  linmin:  1.230e-05  t[s]:   3361.46
	FillingsUpdate:  mu: -0.097457606  nElectrons: 180.000000
	SubspaceRotationAdjust: set factor to 0.078
ElecMinimize: Iter:  24  F: -851.978905657671817  |grad|_K:  3.784e-08  alpha:  3.567e-01  linmin:  9.130e-07  t[s]:   3399.82
	FillingsUpdate:  mu: -0.097217630  nElectrons: 180.000000
	SubspaceRotationAdjust: set factor to 0.066
ElecMinimize: Iter:  25  F: -851.978905778865283  |grad|_K:  3.151e-08  alpha:  3.146e-01  linmin: -2.669e-05  t[s]:   3437.83
	FillingsUpdate:  mu: -0.097288874  nElectrons: 180.000000
	SubspaceRotationAdjust: set factor to 0.0714
ElecMinimize: Iter:  26  F: -851.978905897457025  |grad|_K:  2.817e-08  alpha:  4.421e-01  linmin:  2.092e-05  t[s]:   3476.07
	FillingsUpdate:  mu: -0.097314205  nElectrons: 180.000000
	SubspaceRotationAdjust: set factor to 0.0772
ElecMinimize: Iter:  27  F: -851.978905994933029  |grad|_K:  2.549e-08  alpha:  4.584e-01  linmin:  3.488e-05  t[s]:   3514.02
	FillingsUpdate:  mu: -0.097161600  nElectrons: 180.000000
	SubspaceRotationAdjust: set factor to 0.0721
ElecMinimize: Iter:  28  F: -851.978906065737647  |grad|_K:  2.323e-08  alpha:  4.062e-01  linmin: -4.538e-06  t[s]:   3552.14
	FillingsUpdate:  mu: -0.097270761  nElectrons: 180.000000
	SubspaceRotationAdjust: set factor to 0.0632
ElecMinimize: Iter:  29  F: -851.978906115409814  |grad|_K:  1.959e-08  alpha:  3.418e-01  linmin: -3.500e-05  t[s]:   3590.46
	FillingsUpdate:  mu: -0.097187552  nElectrons: 180.000000
	SubspaceRotationAdjust: set factor to 0.0642
ElecMinimize: Iter:  30  F: -851.978906158348650  |grad|_K:  1.682e-08  alpha:  4.079e-01  linmin: -1.590e-06  t[s]:   3628.38
	FillingsUpdate:  mu: -0.097159398  nElectrons: 180.000000

Dumping 'X.fillings' ... done
Dumping 'X.wfns' ... done
Dumping 'X.ionpos' ... done
Dumping 'X.force' ... done
Dumping 'X.eigenvals' ... done
	SubspaceRotationAdjust: set factor to 0.0682
ElecMinimize: Iter:  31  F: -851.978906194212072  |grad|_K:  1.576e-08  alpha:  4.691e-01  linmin:  1.546e-05  t[s]:   3668.79
	FillingsUpdate:  mu: -0.097232905  nElectrons: 180.000000
	SubspaceRotationAdjust: set factor to 0.0634
ElecMinimize: Iter:  32  F: -851.978906222516571  |grad|_K:  1.477e-08  alpha:  4.278e-01  linmin: -1.640e-05  t[s]:   3707.08
	FillingsUpdate:  mu: -0.097156115  nElectrons: 180.000000
	SubspaceRotationAdjust: set factor to 0.056
ElecMinimize: Iter:  33  F: -851.978906245266785  |grad|_K:  1.250e-08  alpha:  3.796e-01  linmin: -6.143e-05  t[s]:   3745.18
	FillingsUpdate:  mu: -0.097183604  nElectrons: 180.000000
	SubspaceRotationAdjust: set factor to 0.0599
ElecMinimize: Iter:  34  F: -851.978906263867657  |grad|_K:  1.050e-08  alpha:  4.255e-01  linmin: -5.083e-05  t[s]:   3783.38
	FillingsUpdate:  mu: -0.097226200  nElectrons: 180.000000
	SubspaceRotationAdjust: set factor to 0.06
ElecMinimize: Iter:  35  F: -851.978906276657199  |grad|_K:  9.298e-09  alpha:  4.253e-01  linmin: -1.221e-04  t[s]:   3822.29
	FillingsUpdate:  mu: -0.097184592  nElectrons: 180.000000
	SubspaceRotationAdjust: set factor to 0.0557
ElecMinimize: Iter:  36  F: -851.978906286663346  |grad|_K:  8.286e-09  alpha:  4.172e-01  linmin: -4.577e-05  t[s]:   3860.51
	FillingsUpdate:  mu: -0.097212401  nElectrons: 180.000000
	SubspaceRotationAdjust: set factor to 0.0597
ElecMinimize: Iter:  37  F: -851.978906294761487  |grad|_K:  7.282e-09  alpha:  4.576e-01  linmin:  1.552e-04  t[s]:   3898.61
	FillingsUpdate:  mu: -0.097230720  nElectrons: 180.000000
	SubspaceRotationAdjust: set factor to 0.065
ElecMinimize: Iter:  38  F: -851.978906300681615  |grad|_K:  6.155e-09  alpha:  4.063e-01  linmin: -3.302e-04  t[s]:   3936.91
ElecMinimize: Converged (|Delta F|<1.000000e-08 for 2 iters).
Setting wave functions to eigenvectors of Hamiltonian
Converging empty states (this may take a while): |deigs|: 2.183e-09

# Ionic positions in lattice coordinates:
ion Na   0.000000000000000   0.000000000000000   0.187783366522760 1
ion Na   0.500000000000000   0.500000000000000   0.220887089898203 1
ion Na   0.000000000000000   0.000000000000000   0.253421052944215 1
ion Na   0.500000000000000   0.500000000000000   0.286216852460363 1
ion Na   0.000000000000000   0.000000000000000   0.319184642897697 1
ion Na   0.500000000000000   0.500000000000000   0.352198179054497 1
ion Na  -0.000000000000000   0.000000000000000   0.384948348737157 1
ion Na   0.500000000000000   0.500000000000000   0.417821220721037 1
ion Na  -0.000000000000000   0.000000000000000   0.450660023374922 1
ion Na   0.500000000000000   0.500000000000000   0.483352373182582 1
ion Na   0.000000000000000   0.000000000000000   0.516647626817418 1
ion Na   0.500000000000000   0.500000000000000   0.549339976625078 1
ion Na  -0.000000000000000   0.000000000000000   0.582178779278963 1
ion Na   0.500000000000000   0.500000000000000   0.615051651262843 1
ion Na  -0.000000000000000   0.000000000000000   0.647801820945503 1
ion Na   0.500000000000000   0.500000000000000   0.680815357102303 1
ion Na  -0.000000000000000   0.000000000000000   0.713783147539637 1
ion Na   0.500000000000000   0.500000000000000   0.746578947055785 1
ion Na  -0.000000000000000   0.000000000000000   0.779112910101797 1
ion Na   0.500000000000000   0.500000000000000   0.812216633477240 1

# Forces in Lattice coordinates:
force Na   0.000000000000000  -0.000000000000000   0.005106930070855 1
force Na   0.000000000000000   0.000000000000000  -0.003033977802322 1
force Na   0.000000000000000   0.000000000000000   0.002141568596487 1
force Na   0.000000000000000   0.000000000000000  -0.005215613323232 1
force Na  -0.000000000000000  -0.000000000000000  -0.002218123867430 1
force Na   0.000000000000000   0.000000000000000  -0.002013677560559 1
force Na  -0.000000000000000  -0.000000000000000   0.002693988096461 1
force Na   0.000000000000000   0.000000000000000  -0.000921443565375 1
force Na   0.000000000000000  -0.000000000000000  -0.007712585964121 1
force Na  -0.000000000000000   0.000000000000000   0.004499653423958 1
force Na  -0.000000000000000  -0.000000000000000  -0.004499653423958 1
force Na   0.000000000000000  -0.000000000000000   0.007712585964121 1
force Na   0.000000000000000  -0.000000000000000   0.000921443564465 1
force Na  -0.000000000000000  -0.000000000000000  -0.002693988095552 1
force Na   0.000000000000000   0.000000000000000   0.002013677560559 1
force Na  -0.000000000000000   0.000000000000000   0.002218123865611 1
force Na  -0.000000000000000   0.000000000000000   0.005215613321413 1
force Na   0.000000000000000  -0.000000000000000  -0.002141568598306 1
force Na  -0.000000000000000  -0.000000000000000   0.003033977798684 1
force Na   0.000000000000000  -0.000000000000000  -0.005106930070854 1

# Energy components:
   Eewald =   -43067.7323995585393277
       EH =   -42384.9719569189182948
     Eloc =    84550.7649350407882594
      Enl =     -258.6356918909614251
   Epulay =       -0.0000000375460671
      Exc =     -125.2659589629458168
       KE =      433.8630073470894786
-------------------------------------
     Etot =     -851.9780649810259092
       TS =        0.0008413196557170
-------------------------------------
        F =     -851.9789063006816150

IonicMinimize: Iter:   2  F: -851.978906300681615  |grad|_K:  1.936e-05  alpha:  1.000e+00  linmin:  1.380e-01  t[s]:   3975.02

#--- Lowdin population analysis ---
# oxidation-state Na +0.051 +0.050 +0.034 +0.048 +0.041 +0.040 +0.038 +0.044 +0.040 +0.045 +0.045 +0.040 +0.044 +0.038 +0.040 +0.041 +0.048 +0.034 +0.050 +0.051


-------- Electronic minimization -----------
	FillingsUpdate:  mu: -0.095521777  nElectrons: 180.000000
ElecMinimize: Iter:   0  F: -851.978896918834380  |grad|_K:  3.889e-07  alpha:  1.000e+00
	FillingsUpdate:  mu: -0.098155806  nElectrons: 180.000000
	SubspaceRotationAdjust: set factor to 0.0314
ElecMinimize: Iter:   1  F: -851.978905638185893  |grad|_K:  1.517e-07  alpha:  2.135e-01  linmin: -7.193e-05  t[s]:   4042.12
	FillingsUpdate:  mu: -0.097206061  nElectrons: 180.000000
	SubspaceRotationAdjust: set factor to 0.0206
ElecMinimize: Iter:   2  F: -851.978906988280642  |grad|_K:  4.597e-08  alpha:  2.172e-01  linmin:  6.492e-05  t[s]:   4080.36
	FillingsUpdate:  mu: -0.097165487  nElectrons: 180.000000
	SubspaceRotationAdjust: set factor to 0.0247
ElecMinimize: Iter:   3  F: -851.978907252137333  |grad|_K:  2.798e-08  alpha:  4.596e-01  linmin: -2.696e-03  t[s]:   4118.25
	FillingsUpdate:  mu: -0.097291582  nElectrons: 180.000000
	SubspaceRotationAdjust: set factor to 0.0258
ElecMinimize: Iter:   4  F: -851.978907378963754  |grad|_K:  2.013e-08  alpha:  5.902e-01  linmin:  1.172e-03  t[s]:   4156.16
	FillingsUpdate:  mu: -0.097321886  nElectrons: 180.000000
	SubspaceRotationAdjust: set factor to 0.0285
ElecMinimize: Iter:   5  F: -851.978907447555230  |grad|_K:  1.568e-08  alpha:  6.316e-01  linmin: -1.016e-03  t[s]:   4194.65
	FillingsUpdate:  mu: -0.097241446  nElectrons: 180.000000
	SubspaceRotationAdjust: set factor to 0.0299
ElecMinimize: Iter:   6  F: -851.978907488113009  |grad|_K:  1.204e-08  alpha:  6.101e-01  linmin:  1.774e-03  t[s]:   4232.71
	FillingsUpdate:  mu: -0.097222327  nElectrons: 180.000000

Dumping 'X.fillings' ... done
Dumping 'X.wfns' ... done
Dumping 'X.ionpos' ... done
Dumping 'X.force' ... done
Dumping 'X.eigenvals' ... done
	SubspaceRotationAdjust: set factor to 0.0332
ElecMinimize: Iter:   7  F: -851.978907505898860  |grad|_K:  9.076e-09  alpha:  4.881e-01  linmin: -3.394e-03  t[s]:   4273.85
	FillingsUpdate:  mu: -0.097245364  nElectrons: 180.000000
	SubspaceRotationAdjust: set factor to 0.0351
ElecMinimize: Iter:   8  F: -851.978907519713061  |grad|_K:  8.908e-09  alpha:  6.156e-01  linmin:  6.593e-03  t[s]:   4312.13
	FillingsUpdate:  mu: -0.097242131  nElectrons: 180.000000
	SubspaceRotationAdjust: set factor to 0.038
ElecMinimize: Iter:   9  F: -851.978907531987716  |grad|_K:  9.009e-09  alpha:  6.207e-01  linmin:  2.020e-03  t[s]:   4350.42
	FillingsUpdate:  mu: -0.097210972  nElectrons: 180.000000
	SubspaceRotationAdjust: set factor to 0.0398
ElecMinimize: Iter:  10  F: -851.978907543524770  |grad|_K:  8.104e-09  alpha:  5.416e-01  linmin: -1.826e-03  t[s]:   4388.59
	FillingsUpdate:  mu: -0.097216679  nElectrons: 180.000000
	SubspaceRotationAdjust: set factor to 0.0429
ElecMinimize: Iter:  11  F: -851.978907554506350  |grad|_K:  7.879e-09  alpha:  6.123e-01  linmin:  2.032e-03  t[s]:   4426.74
	FillingsUpdate:  mu: -0.097235041  nElectrons: 180.000000
	SubspaceRotationAdjust: set factor to 0.0457
ElecMinimize: Iter:  12  F: -851.978907562721815  |grad|_K:  6.580e-09  alpha:  4.827e-01  linmin: -1.392e-03  t[s]:   4464.86
	FillingsUpdate:  mu: -0.097223151  nElectrons: 180.000000
	SubspaceRotationAdjust: set factor to 0.0491
ElecMinimize: Iter:  13  F: -851.978907568284512  |grad|_K:  5.838e-09  alpha:  5.438e-01  linmin:  1.292e-03  t[s]:   4502.95
ElecMinimize: Converged (|Delta F|<1.000000e-08 for 2 iters).
Setting wave functions to eigenvectors of Hamiltonian
Converging empty states (this may take a while): |deigs|: 6.070e-09

# Ionic positions in lattice coordinates:
ion Na   0.000000000000000   0.000000000000000   0.187812118172931 1
ion Na   0.500000000000000   0.500000000000000   0.220887726255819 1
ion Na   0.000000000000000   0.000000000000000   0.253431876763512 1
ion Na   0.500000000000000   0.500000000000000   0.286174155629305 1
ion Na   0.000000000000000   0.000000000000000   0.319170800598320 1
ion Na   0.500000000000000   0.500000000000000   0.352199509453442 1
ion Na  -0.000000000000000   0.000000000000000   0.384972892985456 1
ion Na   0.500000000000000   0.500000000000000   0.417820700366499 1
ion Na  -0.000000000000000   0.000000000000000   0.450606938631798 1
ion Na   0.500000000000000   0.500000000000000   0.483365204559795 1
ion Na   0.000000000000000   0.000000000000000   0.516634795440205 1
ion Na   0.500000000000000   0.500000000000000   0.549393061368202 1
ion Na  -0.000000000000000   0.000000000000000   0.582179299633501 1
ion Na   0.500000000000000   0.500000000000000   0.615027107014544 1
ion Na  -0.000000000000000   0.000000000000000   0.647800490546558 1
ion Na   0.500000000000000   0.500000000000000   0.680829199401680 1
ion Na  -0.000000000000000   0.000000000000000   0.713825844370695 1
ion Na   0.500000000000000   0.500000000000000   0.746568123236488 1
ion Na  -0.000000000000000   0.000000000000000   0.779112273744181 1
ion Na   0.500000000000000   0.500000000000000   0.812187881827069 1

# Forces in Lattice coordinates:
force Na   0.000000000000000  -0.000000000000000   0.003477234882541 1
force Na   0.000000000000000  -0.000000000000000   0.000186994605672 1
force Na  -0.000000000000000   0.000000000000000   0.000082783858048 1
force Na  -0.000000000000000   0.000000000000000   0.000352872221127 1
force Na  -0.000000000000000  -0.000000000000000  -0.000775467416708 1
force Na   0.000000000000000  -0.000000000000000   0.000124563272716 1
force Na  -0.000000000000000   0.000000000000000   0.001493448836930 1
force Na  -0.000000000000000  -0.000000000000000  -0.000826601930856 1
force Na   0.000000000000000   0.000000000000000  -0.000950700459390 1
force Na   0.000000000000000   0.000000000000000   0.000203993702630 1
force Na   0.000000000000000   0.000000000000000  -0.000203993702630 1
force Na  -0.000000000000000  -0.000000000000000   0.000950700459845 1
force Na  -0.000000000000000   0.000000000000000   0.000826601930856 1
force Na   0.000000000000000   0.000000000000000  -0.001493448836930 1
force Na   0.000000000000000   0.000000000000000  -0.000124563272716 1
force Na   0.000000000000000   0.000000000000000   0.000775467416708 1
force Na   0.000000000000000  -0.000000000000000  -0.000352872221127 1
force Na   0.000000000000000  -0.000000000000000  -0.000082783856229 1
force Na   0.000000000000000  -0.000000000000000  -0.000186994605672 1
force Na   0.000000000000000   0.000000000000000  -0.003477234882541 1

# Energy components:
   Eewald =   -43067.6471525576926069
       EH =   -42384.8849953164753970
     Eloc =    84550.5926212414196925
      Enl =     -258.6357168968456790
   Epulay =       -0.0000000375460671
      Exc =     -125.2660666956776794
       KE =      433.8632438889944183
-------------------------------------
     Etot =     -851.9780663738231397
       TS =        0.0008411944613823
-------------------------------------
        F =     -851.9789075682845123


Dumping 'X.fillings' ... done
Dumping 'X.wfns' ... done
Dumping 'X.ionpos' ... done
Dumping 'X.force' ... done
Dumping 'X.lattice' ... done
Dumping 'X.eigenvals' ... done
Dumping 'X.dos' ... done.
IonicMinimize: Iter:   3  F: -851.978907568284512  |grad|_K:  6.185e-06  alpha:  1.000e+00  linmin: -5.650e-01  t[s]:   4550.48
IonicMinimize: Converged (|grad|_K<1.000000e-05).

#--- Lowdin population analysis ---
# oxidation-state Na +0.051 +0.050 +0.034 +0.048 +0.041 +0.040 +0.038 +0.044 +0.040 +0.045 +0.045 +0.040 +0.044 +0.038 +0.040 +0.041 +0.048 +0.034 +0.050 +0.051


Dumping 'X.fillings' ... done
Dumping 'X.wfns' ... done
Dumping 'X.ionpos' ... done
Dumping 'X.lattice' ... done
Dumping 'X.n' ... done
Dumping 'X.eigenvals' ... done
Dumping 'X.eigStats' ... 
	eMin: -2.059512 at state 0 ( [ +0.000000 +0.000000 +0.000000 ] spin 0 )
	HOMO: -0.097447 at state 6 ( [ +0.090909 +0.090909 +0.000000 ] spin 0 )
	mu  : -0.097223
	LUMO: -0.096800 at state 10 ( [ +0.090909 +0.454545 +0.000000 ] spin 0 )
	eMax: +0.007109 at state 6 ( [ +0.090909 +0.090909 +0.000000 ] spin 0 )
	HOMO-LUMO gap: +0.000647
	Optical gap  : +0.001653 at state 14 ( [ +0.181818 +0.454545 +0.000000 ] spin 0 )
Dumping 'X.dos' ... done.
End date and time: Thu Nov  9 04:36:18 2023  (Duration: 0-1:15:58.52)
Done!
