
*************** JDFTx 1.7.0  ***************

Start date and time: Thu Nov  9 00:21:28 2023
Executable jdftx with command-line: -m -i X.in -o X.out
Running on hosts (process indices):  ac0731 (0-20)
Divided in process groups (process indices):  0 (0)  1 (1)  2 (2)  3 (3)  4 (4)  5 (5)  6 (6)  7 (7)  8 (8)  9 (9)  10 (10)  11 (11)  12 (12)  13 (13)  14 (14)  15 (15)  16 (16)  17 (17)  18 (18)  19 (19)  20 (20)
Resource initialization completed at t[s]:      0.02
Run totals: 21 processes, 21 threads, 0 GPUs


Input parsed successfully to the following command list (including defaults):

basis kpoint-dependent
cache-projectors no
coords-type Lattice
core-overlap-check vector
coulomb-interaction Slab 001
coulomb-truncation-embed 0 0 0.5
davidson-band-ratio 1.1
density-of-states Etol 1.000000e-06 Esigma 0.000000e+00 \
		Complete \
	Total \
		Occupied \
	Total
dump End State IonicPositions Lattice ElecDensity CoreDensity EigStats DOS
dump Electronic State Forces
dump Ionic State IonicPositions Forces Lattice DOS
dump-interval Electronic 8
dump-interval Ionic 4
dump-name X.$var
elec-cutoff 10
elec-eigen-algo Davidson
elec-ex-corr gga-PBE
elec-smearing Fermi 0.0095
electronic-minimize  \
	dirUpdateScheme      FletcherReeves \
	linminMethod         DirUpdateRecommended \
	nIterations          2000 \
	history              15 \
	knormThreshold       0 \
	energyDiffThreshold  1e-06 \
	nEnergyDiff          2 \
	alphaTstart          1 \
	alphaTmin            1e-10 \
	updateTestStepSize   yes \
	alphaTreduceFactor   0.1 \
	alphaTincreaseFactor 3 \
	nAlphaAdjustMax      3 \
	wolfeEnergy          0.0001 \
	wolfeGradient        0.9 \
	fdTest               no
exchange-regularization WignerSeitzTruncated
fluid None
fluid-ex-corr (null) lda-PZ
fluid-gummel-loop 10 1.000000e-05
fluid-minimize  \
	dirUpdateScheme      PolakRibiere \
	linminMethod         DirUpdateRecommended \
	nIterations          100 \
	history              15 \
	knormThreshold       0 \
	energyDiffThreshold  0 \
	nEnergyDiff          2 \
	alphaTstart          1 \
	alphaTmin            1e-10 \
	updateTestStepSize   yes \
	alphaTreduceFactor   0.1 \
	alphaTincreaseFactor 3 \
	nAlphaAdjustMax      3 \
	wolfeEnergy          0.0001 \
	wolfeGradient        0.9 \
	fdTest               no
fluid-solvent H2O 55.338 ScalarEOS \
	epsBulk 78.4 \
	pMol 0.92466 \
	epsInf 1.77 \
	Pvap 1.06736e-10 \
	sigmaBulk 4.62e-05 \
	Rvdw 2.61727 \
	Res 1.42 \
	tauNuc 343133 \
	poleEl 15 7 1
forces-output-coords Positions
initial-state X.$var
ion Na   0.000000000000000   0.000000000000000   0.254780000000000 1
ion Na   0.500000000000000   0.500000000000000   0.299360000000000 1
ion Na   0.000000000000000   0.000000000000000   0.343950000000000 1
ion Na   0.500000000000000   0.500000000000000   0.388540000000000 1
ion Na   0.000000000000000   0.000000000000000   0.433120000000000 1
ion Na   0.500000000000000   0.500000000000000   0.477710000000000 1
ion Na   0.000000000000000   0.000000000000000   0.522290000000000 1
ion Na   0.500000000000000   0.500000000000000   0.566880000000000 1
ion Na   0.000000000000000   0.000000000000000   0.611460000000000 1
ion Na   0.500000000000000   0.500000000000000   0.656050000000000 1
ion Na   0.000000000000000   0.000000000000000   0.700640000000000 1
ion Na   0.500000000000000   0.500000000000000   0.745220000000000 1
ion-species SG15/$ID_ONCV_PBE.upf
ion-width 0
ionic-minimize  \
	dirUpdateScheme      L-BFGS \
	linminMethod         DirUpdateRecommended \
	nIterations          0 \
	history              15 \
	knormThreshold       0.0001 \
	energyDiffThreshold  1e-06 \
	nEnergyDiff          2 \
	alphaTstart          1 \
	alphaTmin            1e-10 \
	updateTestStepSize   yes \
	alphaTreduceFactor   0.1 \
	alphaTincreaseFactor 3 \
	nAlphaAdjustMax      3 \
	wolfeEnergy          0.0001 \
	wolfeGradient        0.9 \
	fdTest               no
kpoint   0.000000000000   0.000000000000   0.000000000000  1.00000000000000
kpoint-folding 11 11 1 
latt-move-scale 1 1 1
latt-scale 1.88973 1.88973 1.88973 
lattice  \
	   4.199920000000001   -0.000000000000000   -0.000000000000000  \
	   0.000000000000000    4.199920000000001   -0.000000000000000  \
	   0.000000000000000    0.000000000000000   47.099599999999995 
lattice-minimize  \
	dirUpdateScheme      L-BFGS \
	linminMethod         DirUpdateRecommended \
	nIterations          0 \
	history              15 \
	knormThreshold       0 \
	energyDiffThreshold  1e-06 \
	nEnergyDiff          2 \
	alphaTstart          1 \
	alphaTmin            1e-10 \
	updateTestStepSize   yes \
	alphaTreduceFactor   0.1 \
	alphaTincreaseFactor 3 \
	nAlphaAdjustMax      3 \
	wolfeEnergy          0.0001 \
	wolfeGradient        0.9 \
	fdTest               no
lcao-params -1 1e-06 0.0095
pcm-variant GLSSA13
spintype no-spin
subspace-rotation-factor 1 yes
symmetries automatic
symmetry-threshold 0.0001



---------- Setting up symmetries ----------

Found 16 point-group symmetries of the bravais lattice
Found 16 space-group symmetries with basis
Applied RMS atom displacement 0 bohrs to make symmetries exact.

---------- Initializing the Grid ----------
R = 
[      7.93671            0            0  ]
[            0      7.93671            0  ]
[            0            0      89.0055  ]
unit cell volume = 5606.59
G =
[   0.791661          0          0  ]
[         -0   0.791661          0  ]
[          0         -0  0.0705932  ]
Minimum fftbox size, Smin = [  24  24  256  ]
Chosen fftbox size, S = [  24  24  256  ]

---------- Exchange Correlation functional ----------
Initalized PBE GGA exchange.
Initalized PBE GGA correlation.

---------- Setting up pseudopotentials ----------
Width of ionic core gaussian charges (only for fluid interactions / plotting) set to 0

Reading pseudopotential file '/net/software/testing/software/jdftx/1.7.0-foss-2021b-mkl/share/jdftx/pseudopotentials/SG15/Na_ONCV_PBE.upf':
  'Na' pseudopotential, 'PBE' functional
  Generated using ONCVPSP code by D. R. Hamann
  Author: Martin Schlipf and Francois Gygi  Date: 150915.
  9 valence electrons, 3 orbitals, 4 projectors, 1992 radial grid points, with lMax = 1
  Transforming local potential to a uniform radial grid of dG=0.02 with 815 points.
  Transforming nonlocal projectors to a uniform radial grid of dG=0.02 with 307 points.
    2S    l: 0   occupation:  2.0   eigenvalue: -2.085640
    2P    l: 1   occupation:  6.0   eigenvalue: -1.053708
    3S    l: 0   occupation:  1.0   eigenvalue: -0.100838
  Transforming atomic orbitals to a uniform radial grid of dG=0.02 with 307 points.
  Core radius for overlap checks: 2.01 bohrs.
  Reading pulay file /net/software/testing/software/jdftx/1.7.0-foss-2021b-mkl/share/jdftx/pseudopotentials/SG15/Na_ONCV_PBE.pulay ... using dE_dnG = -1.681960e+00 computed for Ecut = 10.

Initialized 1 species with 12 total atoms.

Folded 1 k-points by 11x11x1 to 121 k-points.

---------- Setting up k-points, bands, fillings ----------
Reduced to 21 k-points under symmetry. 
Computing the number of bands and number of electrons
Calculating initial fillings.
nElectrons: 108.000000   nBands: 60   nStates: 21

----- Setting up reduced wavefunction bases (one per k-point) -----
average nbasis = 8467.727 , ideal nbasis = 8468.228

----- Initializing Supercell corresponding to k-point mesh -----
Lattice vector linear combinations in supercell:
[  11   0   0  ]
[   0  11   0  ]
[   0   0   1  ]
Supercell lattice vectors:
[  87.3039  0  0  ]
[  0  87.3039  0  ]
[  0  0  89.0055  ]

---------- Setting up coulomb interaction ----------
Setting up double-sized grid for truncated Coulomb potentials:
R = 
[      7.93671            0            0  ]
[            0      7.93671            0  ]
[            0            0      178.011  ]
unit cell volume = 11213.2
G =
[   0.791661          0          0  ]
[         -0   0.791661          0  ]
[          0         -0  0.0352966  ]
Chosen fftbox size, S = [  24  24  512  ]
Integer grid location selected as the embedding center:
   Grid: [  0  0  128  ]
   Lattice: [  0  0  0.5  ]
   Cartesian: [  0  0  44.5028  ]
Constructing Wigner-Seitz cell: 6 faces (6 quadrilaterals, 0 hexagons)
Range-separation parameter for embedded mesh potentials due to point charges: 0.743873 bohrs.
Initialized slab truncation along lattice direction 001

---------- Setting up 2D ewald sum ----------
Optimum gaussian width for ewald sums = 4.734710 bohr.
Real space sums over 225 unit cells with max indices [  7  7  0  ]
Reciprocal space sums over 81 terms with max indices [  4  4  0  ]

---------- Allocating electronic variables ----------
Initializing wave functions:  linear combination of atomic orbitals
Na pseudo-atom occupations:   s ( 2 1 )  p ( 6 )
	FillingsUpdate:  mu: +0.137963468  nElectrons: 108.000000
LCAOMinimize: Iter:   0  F: -500.0445560082966949  |grad|_K:  5.663e-03  alpha:  1.000e+00
LCAOMinimize: 	Step increased F by 5.172974e-02, reducing alpha to 8.905810e-03.
	FillingsUpdate:  mu: +0.068136993  nElectrons: 108.000000
LCAOMinimize: Iter:   1  F: -500.0642678860921251  |grad|_K:  4.325e-03  alpha:  8.906e-03  linmin: -2.026e-01  cgtest:  9.953e-01  t[s]:      5.33
LCAOMinimize: Encountered beta<0, resetting CG.
LCAOMinimize: 	Predicted alpha/alphaT>3.000000, increasing alphaT to 2.671743e-02.
	FillingsUpdate:  mu: -0.129757337  nElectrons: 108.000000
LCAOMinimize: Iter:   2  F: -500.0917969741372531  |grad|_K:  7.482e-04  alpha:  3.793e-02  linmin:  2.281e-02  cgtest: -1.227e-01  t[s]:      6.21
LCAOMinimize: 	Predicted alpha/alphaT>3.000000, increasing alphaT to 1.137764e-01.
	FillingsUpdate:  mu: -0.161394252  nElectrons: 108.000000
LCAOMinimize: Iter:   3  F: -500.0960319293145062  |grad|_K:  4.788e-04  alpha:  2.010e-01  linmin:  1.161e-03  cgtest:  1.436e-01  t[s]:      7.10
	FillingsUpdate:  mu: -0.127831401  nElectrons: 108.000000
LCAOMinimize: Iter:   4  F: -500.0972189870047941  |grad|_K:  7.053e-04  alpha:  1.339e-01  linmin: -1.940e-07  cgtest:  1.536e-02  t[s]:      7.75
	FillingsUpdate:  mu: -0.140046144  nElectrons: 108.000000
LCAOMinimize: Iter:   5  F: -500.1001606676376809  |grad|_K:  1.908e-04  alpha:  1.510e-01  linmin: -6.486e-04  cgtest: -3.190e-01  t[s]:      8.41
	FillingsUpdate:  mu: -0.140976894  nElectrons: 108.000000
LCAOMinimize: Iter:   6  F: -500.1004885047571520  |grad|_K:  8.827e-05  alpha:  2.244e-01  linmin: -1.112e-04  cgtest: -1.759e-01  t[s]:      9.06
	FillingsUpdate:  mu: -0.144603984  nElectrons: 108.000000
LCAOMinimize: Iter:   7  F: -500.1005014602619667  |grad|_K:  3.304e-05  alpha:  4.222e-02  linmin: -2.149e-04  cgtest:  4.405e-04  t[s]:      9.72
LCAOMinimize: 	Predicted alpha/alphaT>3.000000, increasing alphaT to 1.266701e-01.
	FillingsUpdate:  mu: -0.142729300  nElectrons: 108.000000
LCAOMinimize: Iter:   8  F: -500.1005128157742661  |grad|_K:  7.590e-06  alpha:  2.654e-01  linmin: -1.003e-05  cgtest: -1.038e-02  t[s]:     10.60
	FillingsUpdate:  mu: -0.142541211  nElectrons: 108.000000
LCAOMinimize: Iter:   9  F: -500.1005130861431667  |grad|_K:  7.070e-06  alpha:  1.202e-01  linmin: -2.065e-05  cgtest:  2.075e-04  t[s]:     11.25
	FillingsUpdate:  mu: -0.142882135  nElectrons: 108.000000
LCAOMinimize: Iter:  10  F: -500.1005131932554946  |grad|_K:  1.980e-06  alpha:  5.477e-02  linmin: -5.309e-05  cgtest: -6.438e-05  t[s]:     11.91
LCAOMinimize: Converged (|Delta F|<1.000000e-06 for 2 iters).


---- Citations for features of the code used in this run ----

   Software package:
      R. Sundararaman, K. Letchworth-Weaver, K.A. Schwarz, D. Gunceler, Y. Ozhabes and T.A. Arias, 'JDFTx: software for joint density-functional theory', SoftwareX 6, 278 (2017)

   gga-PBE exchange-correlation functional:
      J.P. Perdew, K. Burke and M. Ernzerhof, Phys. Rev. Lett. 77, 3865 (1996)

   Pseudopotentials:
      M Schlipf and F Gygi, Comput. Phys. Commun. 196, 36 (2015)

   Truncated Coulomb potentials:
      R. Sundararaman and T.A. Arias, Phys. Rev. B 87, 165122 (2013)

   Total energy minimization with Auxiliary Hamiltonian:
      C. Freysoldt, S. Boeck, and J. Neugebauer, Phys. Rev. B 79, 241103(R) (2009)

   Linear-tetrahedron sampling for density of states:
      G. Lehmann and M. Taut, Phys. status solidi (b) 54, 469 (1972)

This list may not be complete. Please suggest additional citations or
report any other bugs at https://github.com/shankar1729/jdftx/issues

Initialization completed successfully at t[s]:     11.98


-------- Electronic minimization -----------
	FillingsUpdate:  mu: -0.142882135  nElectrons: 108.000000
ElecMinimize: Iter:   0  F: -500.100513193266409  |grad|_K:  4.788e-04  alpha:  1.000e+00
	FillingsUpdate:  mu: -0.128098621  nElectrons: 108.000000
	SubspaceRotationAdjust: set factor to 1
ElecMinimize: Iter:   1  F: -500.815110521213569  |grad|_K:  1.220e-04  alpha:  2.920e-01  linmin:  2.923e-03  t[s]:     13.53
	FillingsUpdate:  mu: -0.172904157  nElectrons: 108.000000
	SubspaceRotationAdjust: set factor to 0.895
ElecMinimize: Iter:   2  F: -500.869845431593774  |grad|_K:  7.737e-05  alpha:  3.453e-01  linmin:  1.422e-05  t[s]:     14.49
	FillingsUpdate:  mu: -0.109611085  nElectrons: 108.000000
	SubspaceRotationAdjust: set factor to 0.532
ElecMinimize: Iter:   3  F: -500.873749800956830  |grad|_K:  6.192e-05  alpha:  6.058e-02  linmin: -3.724e-05  t[s]:     15.44
ElecMinimize: 	Predicted alpha/alphaT>3.000000, increasing alphaT to 1.817481e-01.
	FillingsUpdate:  mu: -0.110639727  nElectrons: 108.000000
	SubspaceRotationAdjust: set factor to 0.786
ElecMinimize: Iter:   4  F: -500.888253932612770  |grad|_K:  4.613e-05  alpha:  3.515e-01  linmin: -1.230e-06  t[s]:     16.69
	FillingsUpdate:  mu: -0.176863625  nElectrons: 108.000000
	SubspaceRotationAdjust: set factor to 0.49
ElecMinimize: Iter:   5  F: -500.893898499094746  |grad|_K:  7.996e-05  alpha:  2.460e-01  linmin:  1.531e-05  t[s]:     17.64
	FillingsUpdate:  mu: -0.117350011  nElectrons: 108.000000
	SubspaceRotationAdjust: set factor to 0.288
ElecMinimize: Iter:   6  F: -500.904230068816958  |grad|_K:  4.136e-05  alpha:  1.492e-01  linmin: -2.632e-05  t[s]:     18.58
ElecMinimize: 	Predicted alpha/alphaT>3.000000, increasing alphaT to 4.474503e-01.
	FillingsUpdate:  mu: -0.131803834  nElectrons: 108.000000

Dumping 'X.fillings' ... done
Dumping 'X.wfns' ... done
Dumping 'X.force' ... done
Dumping 'X.eigenvals' ... done
	SubspaceRotationAdjust: set factor to 0.248
ElecMinimize: Iter:   7  F: -500.914150061573366  |grad|_K:  3.402e-05  alpha:  5.398e-01  linmin:  4.673e-05  t[s]:     19.99
	FillingsUpdate:  mu: -0.090062957  nElectrons: 108.000000
	SubspaceRotationAdjust: set factor to 0.184
ElecMinimize: Iter:   8  F: -500.918737183476537  |grad|_K:  2.852e-05  alpha:  3.696e-01  linmin: -8.137e-05  t[s]:     20.94
	FillingsUpdate:  mu: -0.123165534  nElectrons: 108.000000
	SubspaceRotationAdjust: set factor to 0.12
	SubspaceRotationAdjust: resetting CG because factor has changed by 0.119863
ElecMinimize: 	State modified externally: resetting search direction.
ElecMinimize: Iter:   9  F: -500.921163710708925  |grad|_K:  1.906e-05  alpha:  2.771e-01
	FillingsUpdate:  mu: -0.106849897  nElectrons: 108.000000
	SubspaceRotationAdjust: set factor to 0.199
ElecMinimize: Iter:  10  F: -500.922460911321991  |grad|_K:  1.296e-05  alpha:  3.336e-01  linmin:  8.906e-06  t[s]:     23.34
	FillingsUpdate:  mu: -0.109482965  nElectrons: 108.000000
	SubspaceRotationAdjust: set factor to 0.211
ElecMinimize: Iter:  11  F: -500.923735854962672  |grad|_K:  1.377e-05  alpha:  7.095e-01  linmin:  2.763e-06  t[s]:     24.28
	FillingsUpdate:  mu: -0.124945473  nElectrons: 108.000000
	SubspaceRotationAdjust: set factor to 0.189
ElecMinimize: Iter:  12  F: -500.924799464458260  |grad|_K:  1.374e-05  alpha:  5.235e-01  linmin:  3.061e-06  t[s]:     25.23
	FillingsUpdate:  mu: -0.106446154  nElectrons: 108.000000
	SubspaceRotationAdjust: set factor to 0.136
ElecMinimize: Iter:  13  F: -500.925579670260959  |grad|_K:  1.209e-05  alpha:  3.853e-01  linmin:  1.473e-07  t[s]:     26.20
	FillingsUpdate:  mu: -0.115751467  nElectrons: 108.000000
	SubspaceRotationAdjust: set factor to 0.133
ElecMinimize: Iter:  14  F: -500.926252825774611  |grad|_K:  9.590e-06  alpha:  4.304e-01  linmin:  5.170e-06  t[s]:     27.15
	FillingsUpdate:  mu: -0.120667579  nElectrons: 108.000000

Dumping 'X.fillings' ... done
Dumping 'X.wfns' ... done
Dumping 'X.force' ... done
Dumping 'X.eigenvals' ... done
	SubspaceRotationAdjust: set factor to 0.137
ElecMinimize: Iter:  15  F: -500.926736231918255  |grad|_K:  9.262e-06  alpha:  4.918e-01  linmin:  5.794e-06  t[s]:     28.21
	FillingsUpdate:  mu: -0.110737336  nElectrons: 108.000000
	SubspaceRotationAdjust: set factor to 0.119
ElecMinimize: Iter:  16  F: -500.927198669810025  |grad|_K:  7.821e-06  alpha:  5.045e-01  linmin:  1.194e-05  t[s]:     29.16
	FillingsUpdate:  mu: -0.114634749  nElectrons: 108.000000
	SubspaceRotationAdjust: set factor to 0.122
ElecMinimize: Iter:  17  F: -500.927498993058464  |grad|_K:  6.023e-06  alpha:  4.600e-01  linmin:  4.193e-06  t[s]:     30.10
	FillingsUpdate:  mu: -0.116643000  nElectrons: 108.000000
	SubspaceRotationAdjust: set factor to 0.125
ElecMinimize: Iter:  18  F: -500.927668977977191  |grad|_K:  5.208e-06  alpha:  4.382e-01  linmin:  4.561e-06  t[s]:     31.06
	FillingsUpdate:  mu: -0.113302869  nElectrons: 108.000000
	SubspaceRotationAdjust: set factor to 0.122
ElecMinimize: Iter:  19  F: -500.927812011722949  |grad|_K:  4.488e-06  alpha:  4.931e-01  linmin:  1.432e-05  t[s]:     32.02
	FillingsUpdate:  mu: -0.114187745  nElectrons: 108.000000
	SubspaceRotationAdjust: set factor to 0.131
ElecMinimize: Iter:  20  F: -500.927912222606267  |grad|_K:  3.233e-06  alpha:  4.653e-01  linmin:  2.129e-05  t[s]:     32.97
	FillingsUpdate:  mu: -0.115015624  nElectrons: 108.000000
	SubspaceRotationAdjust: set factor to 0.137
ElecMinimize: Iter:  21  F: -500.927959586596842  |grad|_K:  3.013e-06  alpha:  4.235e-01  linmin:  4.454e-06  t[s]:     33.91
	FillingsUpdate:  mu: -0.113659889  nElectrons: 108.000000
	SubspaceRotationAdjust: set factor to 0.142
ElecMinimize: Iter:  22  F: -500.928021420556433  |grad|_K:  3.032e-06  alpha:  6.369e-01  linmin:  1.284e-05  t[s]:     34.86
	FillingsUpdate:  mu: -0.114318170  nElectrons: 108.000000

Dumping 'X.fillings' ... done
Dumping 'X.wfns' ... done
Dumping 'X.force' ... done
Dumping 'X.eigenvals' ... done
	SubspaceRotationAdjust: set factor to 0.145
ElecMinimize: Iter:  23  F: -500.928074422780469  |grad|_K:  3.073e-06  alpha:  5.393e-01  linmin:  3.701e-06  t[s]:     35.93
	FillingsUpdate:  mu: -0.114293110  nElectrons: 108.000000
	SubspaceRotationAdjust: set factor to 0.15
ElecMinimize: Iter:  24  F: -500.928122865327339  |grad|_K:  2.537e-06  alpha:  4.795e-01  linmin:  5.147e-06  t[s]:     36.88
	FillingsUpdate:  mu: -0.113539241  nElectrons: 108.000000
	SubspaceRotationAdjust: set factor to 0.151
ElecMinimize: Iter:  25  F: -500.928154356221853  |grad|_K:  2.155e-06  alpha:  4.576e-01  linmin:  3.612e-06  t[s]:     37.82
	FillingsUpdate:  mu: -0.114926210  nElectrons: 108.000000
	SubspaceRotationAdjust: set factor to 0.147
ElecMinimize: Iter:  26  F: -500.928179982732161  |grad|_K:  2.071e-06  alpha:  5.163e-01  linmin:  5.720e-06  t[s]:     38.77
	FillingsUpdate:  mu: -0.114472730  nElectrons: 108.000000
	SubspaceRotationAdjust: set factor to 0.149
ElecMinimize: Iter:  27  F: -500.928200823273585  |grad|_K:  1.630e-06  alpha:  4.546e-01  linmin:  2.162e-06  t[s]:     39.72
	FillingsUpdate:  mu: -0.114127806  nElectrons: 108.000000
	SubspaceRotationAdjust: set factor to 0.155
ElecMinimize: Iter:  28  F: -500.928213221692147  |grad|_K:  1.281e-06  alpha:  4.360e-01  linmin:  1.183e-06  t[s]:     40.67
	FillingsUpdate:  mu: -0.115037970  nElectrons: 108.000000
	SubspaceRotationAdjust: set factor to 0.151
ElecMinimize: Iter:  29  F: -500.928221137964442  |grad|_K:  1.148e-06  alpha:  4.507e-01  linmin:  2.347e-06  t[s]:     41.61
	FillingsUpdate:  mu: -0.114464360  nElectrons: 108.000000
	SubspaceRotationAdjust: set factor to 0.157
ElecMinimize: Iter:  30  F: -500.928228450473625  |grad|_K:  1.055e-06  alpha:  5.186e-01  linmin: -6.471e-07  t[s]:     42.56
	FillingsUpdate:  mu: -0.114327354  nElectrons: 108.000000

Dumping 'X.fillings' ... done
Dumping 'X.wfns' ... done
Dumping 'X.force' ... done
Dumping 'X.eigenvals' ... done
	SubspaceRotationAdjust: set factor to 0.167
ElecMinimize: Iter:  31  F: -500.928234451539367  |grad|_K:  9.684e-07  alpha:  5.033e-01  linmin: -2.783e-07  t[s]:     43.66
	FillingsUpdate:  mu: -0.114946602  nElectrons: 108.000000
	SubspaceRotationAdjust: set factor to 0.166
ElecMinimize: Iter:  32  F: -500.928239402546581  |grad|_K:  9.357e-07  alpha:  4.931e-01  linmin:  2.511e-06  t[s]:     44.61
	FillingsUpdate:  mu: -0.114320695  nElectrons: 108.000000
	SubspaceRotationAdjust: set factor to 0.16
ElecMinimize: Iter:  33  F: -500.928244262446640  |grad|_K:  8.567e-07  alpha:  5.186e-01  linmin: -4.364e-06  t[s]:     45.55
	FillingsUpdate:  mu: -0.114664529  nElectrons: 108.000000
	SubspaceRotationAdjust: set factor to 0.161
ElecMinimize: Iter:  34  F: -500.928248021111301  |grad|_K:  7.918e-07  alpha:  4.782e-01  linmin: -4.537e-07  t[s]:     46.50
	FillingsUpdate:  mu: -0.114700915  nElectrons: 108.000000
	SubspaceRotationAdjust: set factor to 0.167
ElecMinimize: Iter:  35  F: -500.928251315870341  |grad|_K:  6.484e-07  alpha:  4.908e-01  linmin: -1.063e-06  t[s]:     47.44
	FillingsUpdate:  mu: -0.114326352  nElectrons: 108.000000
	SubspaceRotationAdjust: set factor to 0.163
ElecMinimize: Iter:  36  F: -500.928253253226046  |grad|_K:  5.621e-07  alpha:  4.304e-01  linmin:  4.857e-07  t[s]:     48.39
	FillingsUpdate:  mu: -0.114692136  nElectrons: 108.000000
	SubspaceRotationAdjust: set factor to 0.155
ElecMinimize: Iter:  37  F: -500.928255067362272  |grad|_K:  5.522e-07  alpha:  5.363e-01  linmin:  9.507e-08  t[s]:     49.34
	FillingsUpdate:  mu: -0.114450891  nElectrons: 108.000000
	SubspaceRotationAdjust: set factor to 0.157
ElecMinimize: Iter:  38  F: -500.928256633365550  |grad|_K:  4.786e-07  alpha:  4.797e-01  linmin: -1.313e-06  t[s]:     50.28
	FillingsUpdate:  mu: -0.114399662  nElectrons: 108.000000

Dumping 'X.fillings' ... done
Dumping 'X.wfns' ... done
Dumping 'X.force' ... done
Dumping 'X.eigenvals' ... done
	SubspaceRotationAdjust: set factor to 0.163
ElecMinimize: Iter:  39  F: -500.928257813665425  |grad|_K:  4.342e-07  alpha:  4.812e-01  linmin:  4.035e-07  t[s]:     51.35
	FillingsUpdate:  mu: -0.114666923  nElectrons: 108.000000
	SubspaceRotationAdjust: set factor to 0.162
ElecMinimize: Iter:  40  F: -500.928258896455645  |grad|_K:  4.449e-07  alpha:  5.363e-01  linmin: -6.239e-07  t[s]:     52.30
	FillingsUpdate:  mu: -0.114381758  nElectrons: 108.000000
	SubspaceRotationAdjust: set factor to 0.157
ElecMinimize: Iter:  41  F: -500.928260106266066  |grad|_K:  4.665e-07  alpha:  5.709e-01  linmin:  5.185e-07  t[s]:     53.24
	FillingsUpdate:  mu: -0.114554982  nElectrons: 108.000000
	SubspaceRotationAdjust: set factor to 0.16
ElecMinimize: Iter:  42  F: -500.928261322580227  |grad|_K:  4.428e-07  alpha:  5.222e-01  linmin:  1.461e-06  t[s]:     54.19
	FillingsUpdate:  mu: -0.114624841  nElectrons: 108.000000
	SubspaceRotationAdjust: set factor to 0.165
ElecMinimize: Iter:  43  F: -500.928262407574096  |grad|_K:  4.178e-07  alpha:  5.171e-01  linmin:  3.813e-07  t[s]:     55.14
	FillingsUpdate:  mu: -0.114391737  nElectrons: 108.000000
	SubspaceRotationAdjust: set factor to 0.163
ElecMinimize: Iter:  44  F: -500.928263346223559  |grad|_K:  3.925e-07  alpha:  5.023e-01  linmin:  3.730e-06  t[s]:     56.14
	FillingsUpdate:  mu: -0.114629108  nElectrons: 108.000000
	SubspaceRotationAdjust: set factor to 0.159
ElecMinimize: Iter:  45  F: -500.928264153214457  |grad|_K:  3.598e-07  alpha:  4.895e-01  linmin: -2.011e-07  t[s]:     57.08
ElecMinimize: Converged (|Delta F|<1.000000e-06 for 2 iters).
Setting wave functions to eigenvectors of Hamiltonian

# Ionic positions in lattice coordinates:
ion Na   0.000000000000000   0.000000000000000   0.254780000000000 1
ion Na   0.500000000000000   0.500000000000000   0.299360000000000 1
ion Na   0.000000000000000   0.000000000000000   0.343950000000000 1
ion Na   0.500000000000000   0.500000000000000   0.388540000000000 1
ion Na   0.000000000000000   0.000000000000000   0.433120000000000 1
ion Na   0.500000000000000   0.500000000000000   0.477710000000000 1
ion Na   0.000000000000000   0.000000000000000   0.522290000000000 1
ion Na   0.500000000000000   0.500000000000000   0.566880000000000 1
ion Na   0.000000000000000   0.000000000000000   0.611460000000000 1
ion Na   0.500000000000000   0.500000000000000   0.656050000000000 1
ion Na   0.000000000000000   0.000000000000000   0.700640000000000 1
ion Na   0.500000000000000   0.500000000000000   0.745220000000000 1

# Forces in Lattice coordinates:
force Na   0.000000000000000   0.000000000000000   0.053988415058235 1
force Na  -0.000000000000000   0.000000000000000  -0.034572849789948 1
force Na   0.000000000000000  -0.000000000000000  -0.022022460504781 1
force Na  -0.000000000000000   0.000000000000000  -0.023833322647199 1
force Na  -0.000000000000000  -0.000000000000000  -0.025634925780387 1
force Na   0.000000000000000  -0.000000000000000   0.009271864240297 1
force Na  -0.000000000000000   0.000000000000000  -0.009271864240183 1
force Na  -0.000000000000000  -0.000000000000000   0.025634925780387 1
force Na   0.000000000000000   0.000000000000000   0.023833322647654 1
force Na   0.000000000000000  -0.000000000000000   0.022022460504781 1
force Na  -0.000000000000000   0.000000000000000   0.034572849789948 1
force Na   0.000000000000000   0.000000000000000  -0.053988415057325 1

# Energy components:
   Eewald =    -9423.4938425633154111
       EH =    -9035.4428280445099517
     Eloc =    17929.7525034447171493
      Enl =     -138.5857761235920407
   Epulay =       -0.0018014179780609
      Exc =      -71.7267199525705337
       KE =      238.6144074340796237
-------------------------------------
     Etot =     -500.8840572231692363
       TS =        0.0442069300452038
-------------------------------------
        F =     -500.9282641532144567

IonicMinimize: Iter:   0  F: -500.928264153214457  |grad|_K:  2.035e-04  t[s]:     57.26
IonicMinimize: None of the convergence criteria satisfied after 0 iterations.

#--- Lowdin population analysis ---
# oxidation-state Na +0.072 +0.047 +0.038 +0.049 +0.044 +0.045 +0.045 +0.044 +0.049 +0.038 +0.047 +0.072


Dumping 'X.fillings' ... done
Dumping 'X.wfns' ... done
Dumping 'X.ionpos' ... done
Dumping 'X.lattice' ... done
Dumping 'X.n' ... done
Dumping 'X.eigenvals' ... done
Dumping 'X.eigStats' ... 
	eMin: -2.308836 at state 5 ( [ +0.000000 +0.454545 +0.000000 ] spin 0 )
	HOMO: -0.116225 at state 17 ( [ +0.272727 +0.454545 +0.000000 ] spin 0 )
	mu  : -0.114629
	LUMO: -0.114441 at state 14 ( [ +0.181818 +0.454545 +0.000000 ] spin 0 )
	eMax: -0.007474 at state 11 ( [ +0.181818 +0.181818 +0.000000 ] spin 0 )
	HOMO-LUMO gap: +0.001783
	Optical gap  : +0.005730 at state 17 ( [ +0.272727 +0.454545 +0.000000 ] spin 0 )
Dumping 'X.dos' ... done.
End date and time: Thu Nov  9 00:22:25 2023  (Duration: 0-0:00:57.46)
Done!

*************** JDFTx 1.7.0  ***************

Start date and time: Thu Nov  9 00:22:27 2023
Executable jdftx with command-line: -m -i X.in -o X.out
Running on hosts (process indices):  ac0731 (0-20)
Divided in process groups (process indices):  0 (0)  1 (1)  2 (2)  3 (3)  4 (4)  5 (5)  6 (6)  7 (7)  8 (8)  9 (9)  10 (10)  11 (11)  12 (12)  13 (13)  14 (14)  15 (15)  16 (16)  17 (17)  18 (18)  19 (19)  20 (20)
Resource initialization completed at t[s]:      0.00
Run totals: 21 processes, 21 threads, 0 GPUs


Input parsed successfully to the following command list (including defaults):

basis kpoint-dependent
cache-projectors no
coords-type Lattice
core-overlap-check vector
coulomb-interaction Slab 001
coulomb-truncation-embed 0 0 0.5
davidson-band-ratio 1.1
density-of-states Etol 1.000000e-06 Esigma 0.000000e+00 \
		Complete \
	Total \
		Occupied \
	Total
dump End State IonicPositions Lattice ElecDensity CoreDensity EigStats DOS
dump Electronic State Forces
dump Ionic State IonicPositions Forces Lattice DOS
dump-interval Electronic 8
dump-interval Ionic 4
dump-name X.$var
elec-cutoff 20
elec-eigen-algo Davidson
elec-ex-corr gga-PBE
elec-smearing Fermi 0.0095
electronic-minimize  \
	dirUpdateScheme      FletcherReeves \
	linminMethod         DirUpdateRecommended \
	nIterations          2000 \
	history              15 \
	knormThreshold       0 \
	energyDiffThreshold  1e-07 \
	nEnergyDiff          2 \
	alphaTstart          1 \
	alphaTmin            1e-10 \
	updateTestStepSize   yes \
	alphaTreduceFactor   0.1 \
	alphaTincreaseFactor 3 \
	nAlphaAdjustMax      3 \
	wolfeEnergy          0.0001 \
	wolfeGradient        0.9 \
	fdTest               no
exchange-regularization WignerSeitzTruncated
fluid None
fluid-ex-corr (null) lda-PZ
fluid-gummel-loop 10 1.000000e-05
fluid-minimize  \
	dirUpdateScheme      PolakRibiere \
	linminMethod         DirUpdateRecommended \
	nIterations          100 \
	history              15 \
	knormThreshold       0 \
	energyDiffThreshold  0 \
	nEnergyDiff          2 \
	alphaTstart          1 \
	alphaTmin            1e-10 \
	updateTestStepSize   yes \
	alphaTreduceFactor   0.1 \
	alphaTincreaseFactor 3 \
	nAlphaAdjustMax      3 \
	wolfeEnergy          0.0001 \
	wolfeGradient        0.9 \
	fdTest               no
fluid-solvent H2O 55.338 ScalarEOS \
	epsBulk 78.4 \
	pMol 0.92466 \
	epsInf 1.77 \
	Pvap 1.06736e-10 \
	sigmaBulk 4.62e-05 \
	Rvdw 2.61727 \
	Res 1.42 \
	tauNuc 343133 \
	poleEl 15 7 1
forces-output-coords Positions
ion Na   0.000000000000000   0.000000000000000   0.254780000000000 1
ion Na   0.500000000000000   0.500000000000000   0.299360000000000 1
ion Na   0.000000000000000   0.000000000000000   0.343950000000000 1
ion Na   0.500000000000000   0.500000000000000   0.388540000000000 1
ion Na   0.000000000000000   0.000000000000000   0.433120000000000 1
ion Na   0.500000000000000   0.500000000000000   0.477710000000000 1
ion Na   0.000000000000000   0.000000000000000   0.522290000000000 1
ion Na   0.500000000000000   0.500000000000000   0.566880000000000 1
ion Na   0.000000000000000   0.000000000000000   0.611460000000000 1
ion Na   0.500000000000000   0.500000000000000   0.656050000000000 1
ion Na   0.000000000000000   0.000000000000000   0.700640000000000 1
ion Na   0.500000000000000   0.500000000000000   0.745220000000000 1
ion-species SG15/$ID_ONCV_PBE.upf
ion-width 0
ionic-minimize  \
	dirUpdateScheme      L-BFGS \
	linminMethod         DirUpdateRecommended \
	nIterations          0 \
	history              15 \
	knormThreshold       0.0001 \
	energyDiffThreshold  1e-06 \
	nEnergyDiff          2 \
	alphaTstart          1 \
	alphaTmin            1e-10 \
	updateTestStepSize   yes \
	alphaTreduceFactor   0.1 \
	alphaTincreaseFactor 3 \
	nAlphaAdjustMax      3 \
	wolfeEnergy          0.0001 \
	wolfeGradient        0.9 \
	fdTest               no
kpoint   0.000000000000   0.000000000000   0.000000000000  1.00000000000000
kpoint-folding 11 11 1 
latt-move-scale 1 1 1
latt-scale 1 1 1 
lattice  \
	   7.936714821600003   -0.000000000000000   -0.000000000000000  \
	   0.000000000000000    7.936714821600003   -0.000000000000000  \
	   0.000000000000000    0.000000000000000   89.005527107999995 
lattice-minimize  \
	dirUpdateScheme      L-BFGS \
	linminMethod         DirUpdateRecommended \
	nIterations          0 \
	history              15 \
	knormThreshold       0 \
	energyDiffThreshold  1e-06 \
	nEnergyDiff          2 \
	alphaTstart          1 \
	alphaTmin            1e-10 \
	updateTestStepSize   yes \
	alphaTreduceFactor   0.1 \
	alphaTincreaseFactor 3 \
	nAlphaAdjustMax      3 \
	wolfeEnergy          0.0001 \
	wolfeGradient        0.9 \
	fdTest               no
lcao-params -1 1e-06 0.0095
pcm-variant GLSSA13
spintype no-spin
subspace-rotation-factor 1 yes
symmetries automatic
symmetry-threshold 0.0001
wavefunction read X.wfns 60 10.000000



---------- Setting up symmetries ----------

Found 16 point-group symmetries of the bravais lattice
Found 16 space-group symmetries with basis
Applied RMS atom displacement 0 bohrs to make symmetries exact.

---------- Initializing the Grid ----------
R = 
[      7.93671            0            0  ]
[            0      7.93671            0  ]
[            0            0      89.0055  ]
unit cell volume = 5606.59
G =
[   0.791661          0          0  ]
[         -0   0.791661          0  ]
[          0         -0  0.0705932  ]
Minimum fftbox size, Smin = [  32  32  360  ]
Chosen fftbox size, S = [  32  32  360  ]

---------- Exchange Correlation functional ----------
Initalized PBE GGA exchange.
Initalized PBE GGA correlation.

---------- Setting up pseudopotentials ----------
Width of ionic core gaussian charges (only for fluid interactions / plotting) set to 0

Reading pseudopotential file '/net/software/testing/software/jdftx/1.7.0-foss-2021b-mkl/share/jdftx/pseudopotentials/SG15/Na_ONCV_PBE.upf':
  'Na' pseudopotential, 'PBE' functional
  Generated using ONCVPSP code by D. R. Hamann
  Author: Martin Schlipf and Francois Gygi  Date: 150915.
  9 valence electrons, 3 orbitals, 4 projectors, 1992 radial grid points, with lMax = 1
  Transforming local potential to a uniform radial grid of dG=0.02 with 1104 points.
  Transforming nonlocal projectors to a uniform radial grid of dG=0.02 with 432 points.
    2S    l: 0   occupation:  2.0   eigenvalue: -2.085640
    2P    l: 1   occupation:  6.0   eigenvalue: -1.053708
    3S    l: 0   occupation:  1.0   eigenvalue: -0.100838
  Transforming atomic orbitals to a uniform radial grid of dG=0.02 with 432 points.
  Core radius for overlap checks: 2.01 bohrs.
  Reading pulay file /net/software/testing/software/jdftx/1.7.0-foss-2021b-mkl/share/jdftx/pseudopotentials/SG15/Na_ONCV_PBE.pulay ... using dE_dnG = -2.946487e-03 computed for Ecut = 20.

Initialized 1 species with 12 total atoms.

Folded 1 k-points by 11x11x1 to 121 k-points.

---------- Setting up k-points, bands, fillings ----------
Reduced to 21 k-points under symmetry. 
Computing the number of bands and number of electrons
Calculating initial fillings.
nElectrons: 108.000000   nBands: 60   nStates: 21

----- Setting up reduced wavefunction bases (one per k-point) -----
average nbasis = 23950.603 , ideal nbasis = 23951.765

----- Initializing Supercell corresponding to k-point mesh -----
Lattice vector linear combinations in supercell:
[  11   0   0  ]
[   0  11   0  ]
[   0   0   1  ]
Supercell lattice vectors:
[  87.3039  0  0  ]
[  0  87.3039  0  ]
[  0  0  89.0055  ]

---------- Setting up coulomb interaction ----------
Setting up double-sized grid for truncated Coulomb potentials:
R = 
[      7.93671            0            0  ]
[            0      7.93671            0  ]
[            0            0      178.011  ]
unit cell volume = 11213.2
G =
[   0.791661          0          0  ]
[         -0   0.791661          0  ]
[          0         -0  0.0352966  ]
Chosen fftbox size, S = [  32  32  720  ]
Integer grid location selected as the embedding center:
   Grid: [  0  0  180  ]
   Lattice: [  0  0  0.5  ]
   Cartesian: [  0  0  44.5028  ]
Constructing Wigner-Seitz cell: 6 faces (6 quadrilaterals, 0 hexagons)
Range-separation parameter for embedded mesh potentials due to point charges: 0.628283 bohrs.
Initialized slab truncation along lattice direction 001

---------- Setting up 2D ewald sum ----------
Optimum gaussian width for ewald sums = 4.734710 bohr.
Real space sums over 225 unit cells with max indices [  7  7  0  ]
Reciprocal space sums over 81 terms with max indices [  4  4  0  ]

---------- Allocating electronic variables ----------
Initializing wave functions:  reading from 'X.wfns'


---- Citations for features of the code used in this run ----

   Software package:
      R. Sundararaman, K. Letchworth-Weaver, K.A. Schwarz, D. Gunceler, Y. Ozhabes and T.A. Arias, 'JDFTx: software for joint density-functional theory', SoftwareX 6, 278 (2017)

   gga-PBE exchange-correlation functional:
      J.P. Perdew, K. Burke and M. Ernzerhof, Phys. Rev. Lett. 77, 3865 (1996)

   Pseudopotentials:
      M Schlipf and F Gygi, Comput. Phys. Commun. 196, 36 (2015)

   Truncated Coulomb potentials:
      R. Sundararaman and T.A. Arias, Phys. Rev. B 87, 165122 (2013)

   Total energy minimization with Auxiliary Hamiltonian:
      C. Freysoldt, S. Boeck, and J. Neugebauer, Phys. Rev. B 79, 241103(R) (2009)

   Linear-tetrahedron sampling for density of states:
      G. Lehmann and M. Taut, Phys. status solidi (b) 54, 469 (1972)

This list may not be complete. Please suggest additional citations or
report any other bugs at https://github.com/shankar1729/jdftx/issues

Initialization completed successfully at t[s]:      0.68


Setting the auxilliary hamiltonian equal to the subspace hamiltonian.

-------- Electronic minimization -----------
	FillingsUpdate:  mu: -0.083976505  nElectrons: 108.000000
ElecMinimize: Iter:   0  F: -500.902534195993610  |grad|_K:  1.107e-03  alpha:  1.000e+00
	FillingsUpdate:  mu: -0.369198801  nElectrons: 108.000000
	SubspaceRotationAdjust: set factor to 0.945
ElecMinimize: Iter:   1  F: -510.107654641866873  |grad|_K:  4.136e-04  alpha:  2.713e-01  linmin:  1.204e-02  t[s]:      7.75
	FillingsUpdate:  mu: +0.269948197  nElectrons: 108.000000
	SubspaceRotationAdjust: set factor to 0.606
ElecMinimize: Iter:   2  F: -510.477569443511584  |grad|_K:  4.126e-04  alpha:  8.450e-02  linmin:  7.678e-04  t[s]:     10.81
	FillingsUpdate:  mu: -0.051566494  nElectrons: 108.000000
	SubspaceRotationAdjust: set factor to 1.4
ElecMinimize: Iter:   3  F: -511.099349142630274  |grad|_K:  8.394e-05  alpha:  1.326e-01  linmin:  1.112e-03  t[s]:     14.00
	FillingsUpdate:  mu: -0.193782034  nElectrons: 108.000000
	SubspaceRotationAdjust: set factor to 0.807
ElecMinimize: Iter:   4  F: -511.128032611746164  |grad|_K:  1.168e-04  alpha:  1.366e-01  linmin:  3.087e-04  t[s]:     17.60
	FillingsUpdate:  mu: -0.077029278  nElectrons: 108.000000
	SubspaceRotationAdjust: set factor to 0.323
ElecMinimize: Iter:   5  F: -511.151674937028758  |grad|_K:  3.235e-05  alpha:  5.569e-02  linmin: -5.940e-04  t[s]:     21.20
	FillingsUpdate:  mu: -0.141148344  nElectrons: 108.000000
	SubspaceRotationAdjust: set factor to 0.182
ElecMinimize: Iter:   6  F: -511.156805071970552  |grad|_K:  2.945e-05  alpha:  1.623e-01  linmin:  5.098e-04  t[s]:     24.65
	FillingsUpdate:  mu: -0.111277721  nElectrons: 108.000000

Dumping 'X.fillings' ... done
Dumping 'X.wfns' ... done
Dumping 'X.force' ... done
Dumping 'X.eigenvals' ... done
	SubspaceRotationAdjust: set factor to 0.32
ElecMinimize: Iter:   7  F: -511.162528214393376  |grad|_K:  1.734e-05  alpha:  2.318e-01  linmin:  7.695e-05  t[s]:     28.39
	FillingsUpdate:  mu: -0.076367888  nElectrons: 108.000000
	SubspaceRotationAdjust: set factor to 0.236
ElecMinimize: Iter:   8  F: -511.165154012579251  |grad|_K:  1.779e-05  alpha:  2.943e-01  linmin:  1.508e-04  t[s]:     31.83
	FillingsUpdate:  mu: -0.105916669  nElectrons: 108.000000
	SubspaceRotationAdjust: set factor to 0.182
ElecMinimize: Iter:   9  F: -511.166995253001630  |grad|_K:  1.148e-05  alpha:  1.934e-01  linmin: -3.481e-06  t[s]:     35.25
	FillingsUpdate:  mu: -0.113622193  nElectrons: 108.000000
	SubspaceRotationAdjust: set factor to 0.226
ElecMinimize: Iter:  10  F: -511.168657809251840  |grad|_K:  9.790e-06  alpha:  4.192e-01  linmin:  6.302e-05  t[s]:     38.67
	FillingsUpdate:  mu: -0.093087291  nElectrons: 108.000000
	SubspaceRotationAdjust: set factor to 0.157
ElecMinimize: Iter:  11  F: -511.169436401966379  |grad|_K:  7.332e-06  alpha:  2.694e-01  linmin: -5.718e-06  t[s]:     42.08
	FillingsUpdate:  mu: -0.101339315  nElectrons: 108.000000
	SubspaceRotationAdjust: set factor to 0.153
ElecMinimize: Iter:  12  F: -511.169927766706621  |grad|_K:  4.625e-06  alpha:  3.026e-01  linmin:  2.378e-05  t[s]:     45.50
	FillingsUpdate:  mu: -0.105040451  nElectrons: 108.000000
	SubspaceRotationAdjust: set factor to 0.155
ElecMinimize: Iter:  13  F: -511.170191408758342  |grad|_K:  3.918e-06  alpha:  4.092e-01  linmin:  9.784e-06  t[s]:     48.92
	FillingsUpdate:  mu: -0.097793394  nElectrons: 108.000000
	SubspaceRotationAdjust: set factor to 0.124
	SubspaceRotationAdjust: resetting CG because factor has changed by 0.123772
ElecMinimize: 	State modified externally: resetting search direction.
ElecMinimize: Iter:  14  F: -511.170369080619309  |grad|_K:  3.074e-06  alpha:  3.835e-01
	FillingsUpdate:  mu: -0.102880809  nElectrons: 108.000000

Dumping 'X.fillings' ... done
Dumping 'X.wfns' ... done
Dumping 'X.force' ... done
Dumping 'X.eigenvals' ... done
	SubspaceRotationAdjust: set factor to 0.176
ElecMinimize: Iter:  15  F: -511.170458179251455  |grad|_K:  1.974e-06  alpha:  3.123e-01  linmin: -7.152e-07  t[s]:     58.14
	FillingsUpdate:  mu: -0.100351652  nElectrons: 108.000000
	SubspaceRotationAdjust: set factor to 0.171
ElecMinimize: Iter:  16  F: -511.170543862161651  |grad|_K:  2.170e-06  alpha:  7.283e-01  linmin: -4.474e-06  t[s]:     61.57
	FillingsUpdate:  mu: -0.101363729  nElectrons: 108.000000
	SubspaceRotationAdjust: set factor to 0.171
ElecMinimize: Iter:  17  F: -511.170674821951309  |grad|_K:  2.624e-06  alpha:  9.206e-01  linmin: -1.276e-06  t[s]:     65.00
	FillingsUpdate:  mu: -0.101039945  nElectrons: 108.000000
	SubspaceRotationAdjust: set factor to 0.171
ElecMinimize: Iter:  18  F: -511.170789951885183  |grad|_K:  2.151e-06  alpha:  5.538e-01  linmin: -1.198e-06  t[s]:     68.41
	FillingsUpdate:  mu: -0.101409805  nElectrons: 108.000000
	SubspaceRotationAdjust: set factor to 0.171
ElecMinimize: Iter:  19  F: -511.170847335815438  |grad|_K:  1.424e-06  alpha:  4.106e-01  linmin:  4.159e-07  t[s]:     71.83
	FillingsUpdate:  mu: -0.101384671  nElectrons: 108.000000
	SubspaceRotationAdjust: set factor to 0.172
ElecMinimize: Iter:  20  F: -511.170881678359137  |grad|_K:  1.191e-06  alpha:  5.606e-01  linmin:  3.486e-06  t[s]:     75.24
	FillingsUpdate:  mu: -0.101016543  nElectrons: 108.000000
	SubspaceRotationAdjust: set factor to 0.173
ElecMinimize: Iter:  21  F: -511.170902069491888  |grad|_K:  1.016e-06  alpha:  4.763e-01  linmin:  2.069e-06  t[s]:     78.66
	FillingsUpdate:  mu: -0.101959222  nElectrons: 108.000000
	SubspaceRotationAdjust: set factor to 0.167
ElecMinimize: Iter:  22  F: -511.170919711388251  |grad|_K:  9.423e-07  alpha:  5.656e-01  linmin:  1.726e-05  t[s]:     82.07
	FillingsUpdate:  mu: -0.100874963  nElectrons: 108.000000

Dumping 'X.fillings' ... done
Dumping 'X.wfns' ... done
Dumping 'X.force' ... done
Dumping 'X.eigenvals' ... done
	SubspaceRotationAdjust: set factor to 0.152
ElecMinimize: Iter:  23  F: -511.170932927922422  |grad|_K:  7.922e-07  alpha:  4.930e-01  linmin:  4.666e-06  t[s]:     85.84
	FillingsUpdate:  mu: -0.101977565  nElectrons: 108.000000
	SubspaceRotationAdjust: set factor to 0.135
ElecMinimize: Iter:  24  F: -511.170942064321423  |grad|_K:  6.729e-07  alpha:  4.822e-01  linmin:  1.604e-05  t[s]:     89.26
	FillingsUpdate:  mu: -0.100949599  nElectrons: 108.000000
	SubspaceRotationAdjust: set factor to 0.127
ElecMinimize: Iter:  25  F: -511.170951090574192  |grad|_K:  8.023e-07  alpha:  6.603e-01  linmin:  8.529e-06  t[s]:     92.71
	FillingsUpdate:  mu: -0.101462617  nElectrons: 108.000000
	SubspaceRotationAdjust: set factor to 0.126
ElecMinimize: Iter:  26  F: -511.170964136158034  |grad|_K:  7.075e-07  alpha:  6.714e-01  linmin:  2.492e-05  t[s]:     96.13
	FillingsUpdate:  mu: -0.101506722  nElectrons: 108.000000
	SubspaceRotationAdjust: set factor to 0.127
ElecMinimize: Iter:  27  F: -511.170970694405582  |grad|_K:  5.576e-07  alpha:  4.341e-01  linmin: -4.076e-06  t[s]:     99.56
	FillingsUpdate:  mu: -0.101133350  nElectrons: 108.000000
	SubspaceRotationAdjust: set factor to 0.125
ElecMinimize: Iter:  28  F: -511.170975312978840  |grad|_K:  4.734e-07  alpha:  4.919e-01  linmin:  3.814e-06  t[s]:    102.97
	FillingsUpdate:  mu: -0.101438674  nElectrons: 108.000000
	SubspaceRotationAdjust: set factor to 0.123
ElecMinimize: Iter:  29  F: -511.170978858472211  |grad|_K:  4.327e-07  alpha:  5.240e-01  linmin:  2.737e-06  t[s]:    106.39
	FillingsUpdate:  mu: -0.101255211  nElectrons: 108.000000
	SubspaceRotationAdjust: set factor to 0.124
ElecMinimize: Iter:  30  F: -511.170982432689414  |grad|_K:  4.653e-07  alpha:  6.321e-01  linmin:  2.243e-06  t[s]:    109.81
	FillingsUpdate:  mu: -0.101129229  nElectrons: 108.000000

Dumping 'X.fillings' ... done
Dumping 'X.wfns' ... done
Dumping 'X.force' ... done
Dumping 'X.eigenvals' ... done
	SubspaceRotationAdjust: set factor to 0.125
ElecMinimize: Iter:  31  F: -511.170986283395109  |grad|_K:  4.540e-07  alpha:  5.890e-01  linmin:  1.069e-06  t[s]:    113.55
	FillingsUpdate:  mu: -0.101495517  nElectrons: 108.000000
	SubspaceRotationAdjust: set factor to 0.123
ElecMinimize: Iter:  32  F: -511.170989964625448  |grad|_K:  4.540e-07  alpha:  5.915e-01  linmin: -2.244e-06  t[s]:    116.97
	FillingsUpdate:  mu: -0.101230211  nElectrons: 108.000000
	SubspaceRotationAdjust: set factor to 0.123
ElecMinimize: Iter:  33  F: -511.170993341833594  |grad|_K:  4.121e-07  alpha:  5.425e-01  linmin: -6.548e-06  t[s]:    120.39
	FillingsUpdate:  mu: -0.101293431  nElectrons: 108.000000
	SubspaceRotationAdjust: set factor to 0.124
ElecMinimize: Iter:  34  F: -511.170996998883425  |grad|_K:  4.863e-07  alpha:  7.127e-01  linmin: -1.376e-05  t[s]:    123.82
	FillingsUpdate:  mu: -0.101523250  nElectrons: 108.000000
	SubspaceRotationAdjust: set factor to 0.125
ElecMinimize: Iter:  35  F: -511.171001057279398  |grad|_K:  4.696e-07  alpha:  5.680e-01  linmin: -2.496e-05  t[s]:    127.23
	FillingsUpdate:  mu: -0.101264529  nElectrons: 108.000000
	SubspaceRotationAdjust: set factor to 0.127
ElecMinimize: Iter:  36  F: -511.171004678557608  |grad|_K:  4.393e-07  alpha:  5.428e-01  linmin: -4.967e-05  t[s]:    130.65
	FillingsUpdate:  mu: -0.101465056  nElectrons: 108.000000
	SubspaceRotationAdjust: set factor to 0.13
ElecMinimize: Iter:  37  F: -511.171008910135015  |grad|_K:  5.553e-07  alpha:  7.206e-01  linmin: -1.048e-04  t[s]:    134.06
	FillingsUpdate:  mu: -0.101489446  nElectrons: 108.000000
	SubspaceRotationAdjust: set factor to 0.132
ElecMinimize: Iter:  38  F: -511.171017168092135  |grad|_K:  8.814e-07  alpha:  9.849e-01  linmin:  1.809e-03  t[s]:    137.48
	FillingsUpdate:  mu: -0.101477008  nElectrons: 108.000000

Dumping 'X.fillings' ... done
Dumping 'X.wfns' ... done
Dumping 'X.force' ... done
Dumping 'X.eigenvals' ... done
	SubspaceRotationAdjust: set factor to 0.133
ElecMinimize: Iter:  39  F: -511.171017369263154  |grad|_K:  8.733e-07  alpha:  8.054e-03  linmin: -2.651e-03  t[s]:    141.25
ElecMinimize: 	Predicted alpha/alphaT>3.000000, increasing alphaT to 2.416225e-02.
ElecMinimize: 	Predicted alpha/alphaT>3.000000, increasing alphaT to 7.248675e-02.
	FillingsUpdate:  mu: -0.101289223  nElectrons: 108.000000
	SubspaceRotationAdjust: set factor to 0.134
ElecMinimize: Iter:  40  F: -511.171021227985420  |grad|_K:  5.507e-07  alpha:  1.166e-01  linmin:  2.595e-03  t[s]:    146.73
	FillingsUpdate:  mu: -0.101270542  nElectrons: 108.000000
	SubspaceRotationAdjust: set factor to 0.14
ElecMinimize: Iter:  41  F: -511.171021652476782  |grad|_K:  5.153e-07  alpha:  6.404e-02  linmin: -8.016e-05  t[s]:    150.15
	FillingsUpdate:  mu: -0.101291960  nElectrons: 108.000000
	SubspaceRotationAdjust: set factor to 0.15
ElecMinimize: Iter:  42  F: -511.171022325796116  |grad|_K:  4.837e-07  alpha:  8.393e-02  linmin:  2.619e-04  t[s]:    153.59
	FillingsUpdate:  mu: -0.101342054  nElectrons: 108.000000
	SubspaceRotationAdjust: set factor to 0.169
ElecMinimize: Iter:  43  F: -511.171022848074529  |grad|_K:  4.545e-07  alpha:  7.560e-02  linmin:  9.676e-05  t[s]:    157.01
	FillingsUpdate:  mu: -0.101398157  nElectrons: 108.000000
	SubspaceRotationAdjust: set factor to 0.202
ElecMinimize: Iter:  44  F: -511.171023297090812  |grad|_K:  4.304e-07  alpha:  7.255e-02  linmin:  7.420e-05  t[s]:    160.43
	FillingsUpdate:  mu: -0.101437702  nElectrons: 108.000000
	SubspaceRotationAdjust: set factor to 0.256
ElecMinimize: Iter:  45  F: -511.171023704198888  |grad|_K:  4.364e-07  alpha:  7.322e-02  linmin:  5.709e-05  t[s]:    163.84
	FillingsUpdate:  mu: -0.101443018  nElectrons: 108.000000
	SubspaceRotationAdjust: set factor to 0.335
ElecMinimize: Iter:  46  F: -511.171024131288902  |grad|_K:  4.787e-07  alpha:  7.456e-02  linmin:  3.848e-05  t[s]:    167.27
	FillingsUpdate:  mu: -0.101404088  nElectrons: 108.000000

Dumping 'X.fillings' ... done
Dumping 'X.wfns' ... done
Dumping 'X.force' ... done
Dumping 'X.eigenvals' ... done
	SubspaceRotationAdjust: set factor to 0.39
ElecMinimize: Iter:  47  F: -511.171024619527373  |grad|_K:  5.420e-07  alpha:  7.077e-02  linmin:  2.065e-05  t[s]:    171.05
	FillingsUpdate:  mu: -0.101342177  nElectrons: 108.000000
	SubspaceRotationAdjust: set factor to 0.438
ElecMinimize: Iter:  48  F: -511.171025179013668  |grad|_K:  5.970e-07  alpha:  6.320e-02  linmin:  1.081e-05  t[s]:    174.47
	FillingsUpdate:  mu: -0.101309882  nElectrons: 108.000000
	SubspaceRotationAdjust: set factor to 0.496
ElecMinimize: Iter:  49  F: -511.171025805315821  |grad|_K:  6.455e-07  alpha:  5.827e-02  linmin:  5.786e-06  t[s]:    177.88
	FillingsUpdate:  mu: -0.101339013  nElectrons: 108.000000
	SubspaceRotationAdjust: set factor to 0.598
ElecMinimize: Iter:  50  F: -511.171026490093709  |grad|_K:  6.928e-07  alpha:  5.449e-02  linmin:  8.208e-07  t[s]:    181.31
	FillingsUpdate:  mu: -0.101397750  nElectrons: 108.000000
	SubspaceRotationAdjust: set factor to 0.767
ElecMinimize: Iter:  51  F: -511.171027235031431  |grad|_K:  7.507e-07  alpha:  5.142e-02  linmin: -7.580e-06  t[s]:    184.76
	FillingsUpdate:  mu: -0.101401849  nElectrons: 108.000000
	SubspaceRotationAdjust: set factor to 1.02
	SubspaceRotationAdjust: resetting CG because factor has changed by 8.22849
ElecMinimize: 	State modified externally: resetting search direction.
ElecMinimize: Iter:  52  F: -511.171028043990475  |grad|_K:  8.566e-07  alpha:  4.748e-02
ElecMinimize: 	Predicted alpha/alphaT>3.000000, increasing alphaT to 1.424357e-01.
	FillingsUpdate:  mu: -0.099916903  nElectrons: 108.000000
	SubspaceRotationAdjust: set factor to 0.575
ElecMinimize: Iter:  53  F: -511.171037340235728  |grad|_K:  1.575e-06  alpha:  4.067e-01  linmin: -2.428e-03  t[s]:    194.66
	FillingsUpdate:  mu: -0.101653054  nElectrons: 108.000000
	SubspaceRotationAdjust: set factor to 0.264
ElecMinimize: Iter:  54  F: -511.171040624842362  |grad|_K:  7.175e-07  alpha:  4.351e-02  linmin:  7.342e-04  t[s]:    198.09
ElecMinimize: 	Predicted alpha/alphaT>3.000000, increasing alphaT to 1.305334e-01.
	FillingsUpdate:  mu: -0.101414183  nElectrons: 108.000000

Dumping 'X.fillings' ... done
Dumping 'X.wfns' ... done
Dumping 'X.force' ... done
Dumping 'X.eigenvals' ... done
	SubspaceRotationAdjust: set factor to 0.315
ElecMinimize: Iter:  55  F: -511.171044955971468  |grad|_K:  3.426e-07  alpha:  2.873e-01  linmin: -1.161e-03  t[s]:    202.90
	FillingsUpdate:  mu: -0.101022041  nElectrons: 108.000000
	SubspaceRotationAdjust: set factor to 0.295
ElecMinimize: Iter:  56  F: -511.171046489305581  |grad|_K:  3.368e-07  alpha:  4.222e-01  linmin: -1.896e-04  t[s]:    206.37
	FillingsUpdate:  mu: -0.101872140  nElectrons: 108.000000
	SubspaceRotationAdjust: set factor to 0.205
ElecMinimize: Iter:  57  F: -511.171047394314201  |grad|_K:  4.103e-07  alpha:  2.637e-01  linmin:  3.648e-07  t[s]:    209.79
	FillingsUpdate:  mu: -0.101277138  nElectrons: 108.000000
	SubspaceRotationAdjust: set factor to 0.198
ElecMinimize: Iter:  58  F: -511.171049706534063  |grad|_K:  4.001e-07  alpha:  4.537e-01  linmin: -1.605e-04  t[s]:    213.24
	FillingsUpdate:  mu: -0.100926859  nElectrons: 108.000000
	SubspaceRotationAdjust: set factor to 0.213
ElecMinimize: Iter:  59  F: -511.171051741628503  |grad|_K:  3.733e-07  alpha:  4.189e-01  linmin: -4.165e-05  t[s]:    216.68
	FillingsUpdate:  mu: -0.102058864  nElectrons: 108.000000
	SubspaceRotationAdjust: set factor to 0.169
ElecMinimize: Iter:  60  F: -511.171053729890389  |grad|_K:  4.926e-07  alpha:  4.719e-01  linmin:  1.544e-06  t[s]:    220.11
	FillingsUpdate:  mu: -0.101098636  nElectrons: 108.000000
	SubspaceRotationAdjust: set factor to 0.146
ElecMinimize: Iter:  61  F: -511.171057118183114  |grad|_K:  5.052e-07  alpha:  4.623e-01  linmin:  2.656e-05  t[s]:    223.54
	FillingsUpdate:  mu: -0.100884795  nElectrons: 108.000000
	SubspaceRotationAdjust: set factor to 0.171
ElecMinimize: Iter:  62  F: -511.171061013804092  |grad|_K:  5.035e-07  alpha:  5.067e-01  linmin:  1.206e-04  t[s]:    226.98
	FillingsUpdate:  mu: -0.101940331  nElectrons: 108.000000

Dumping 'X.fillings' ... done
Dumping 'X.wfns' ... done
Dumping 'X.force' ... done
Dumping 'X.eigenvals' ... done
	SubspaceRotationAdjust: set factor to 0.139
ElecMinimize: Iter:  63  F: -511.171064276757022  |grad|_K:  4.372e-07  alpha:  4.276e-01  linmin:  9.888e-05  t[s]:    230.79
	FillingsUpdate:  mu: -0.101012036  nElectrons: 108.000000
	SubspaceRotationAdjust: set factor to 0.11
	SubspaceRotationAdjust: resetting CG because factor has changed by 0.108047
ElecMinimize: 	State modified externally: resetting search direction.
ElecMinimize: Iter:  64  F: -511.171066683349409  |grad|_K:  3.576e-07  alpha:  4.185e-01
	FillingsUpdate:  mu: -0.101413130  nElectrons: 108.000000
	SubspaceRotationAdjust: set factor to 0.146
ElecMinimize: Iter:  65  F: -511.171067653497403  |grad|_K:  2.297e-07  alpha:  2.512e-01  linmin:  1.431e-05  t[s]:    239.68
ElecMinimize: 	Predicted alpha/alphaT>3.000000, increasing alphaT to 7.536424e-01.
	FillingsUpdate:  mu: -0.101696746  nElectrons: 108.000000
	SubspaceRotationAdjust: set factor to 0.156
ElecMinimize: Iter:  66  F: -511.171069034798620  |grad|_K:  3.121e-07  alpha:  8.671e-01  linmin:  1.501e-05  t[s]:    244.17
	FillingsUpdate:  mu: -0.100922670  nElectrons: 108.000000
	SubspaceRotationAdjust: set factor to 0.128
ElecMinimize: Iter:  67  F: -511.171070600242217  |grad|_K:  3.224e-07  alpha:  5.316e-01  linmin: -1.053e-05  t[s]:    247.59
	FillingsUpdate:  mu: -0.101555837  nElectrons: 108.000000
	SubspaceRotationAdjust: set factor to 0.107
ElecMinimize: Iter:  68  F: -511.171072195383374  |grad|_K:  2.786e-07  alpha:  5.080e-01  linmin:  9.138e-06  t[s]:    251.03
	FillingsUpdate:  mu: -0.101390456  nElectrons: 108.000000
	SubspaceRotationAdjust: set factor to 0.111
ElecMinimize: Iter:  69  F: -511.171073643012278  |grad|_K:  3.366e-07  alpha:  6.187e-01  linmin:  6.582e-05  t[s]:    254.46
	FillingsUpdate:  mu: -0.101093295  nElectrons: 108.000000
	SubspaceRotationAdjust: set factor to 0.11
ElecMinimize: Iter:  70  F: -511.171075438082596  |grad|_K:  3.251e-07  alpha:  5.249e-01  linmin:  8.582e-05  t[s]:    257.89
	FillingsUpdate:  mu: -0.101466387  nElectrons: 108.000000

Dumping 'X.fillings' ... done
Dumping 'X.wfns' ... done
Dumping 'X.force' ... done
Dumping 'X.eigenvals' ... done
	SubspaceRotationAdjust: set factor to 0.107
ElecMinimize: Iter:  71  F: -511.171076999981551  |grad|_K:  2.731e-07  alpha:  4.914e-01  linmin:  1.201e-04  t[s]:    261.61
	FillingsUpdate:  mu: -0.101464210  nElectrons: 108.000000
	SubspaceRotationAdjust: set factor to 0.109
ElecMinimize: Iter:  72  F: -511.171078364042899  |grad|_K:  2.932e-07  alpha:  6.146e-01  linmin:  3.296e-04  t[s]:    265.03
	FillingsUpdate:  mu: -0.101333760  nElectrons: 108.000000
	SubspaceRotationAdjust: set factor to 0.112
ElecMinimize: Iter:  73  F: -511.171079468446862  |grad|_K:  2.439e-07  alpha:  4.279e-01  linmin:  1.001e-05  t[s]:    268.51
	FillingsUpdate:  mu: -0.101369870  nElectrons: 108.000000
	SubspaceRotationAdjust: set factor to 0.127
ElecMinimize: Iter:  74  F: -511.171080096996434  |grad|_K:  1.742e-07  alpha:  3.490e-01  linmin:  9.132e-05  t[s]:    271.96
	FillingsUpdate:  mu: -0.101392245  nElectrons: 108.000000
	SubspaceRotationAdjust: set factor to 0.142
ElecMinimize: Iter:  75  F: -511.171080624766432  |grad|_K:  2.012e-07  alpha:  5.796e-01  linmin:  1.750e-04  t[s]:    275.39
	FillingsUpdate:  mu: -0.101334165  nElectrons: 108.000000
	SubspaceRotationAdjust: set factor to 0.165
ElecMinimize: Iter:  76  F: -511.171081133456937  |grad|_K:  1.976e-07  alpha:  4.178e-01  linmin:  2.114e-05  t[s]:    278.82
	FillingsUpdate:  mu: -0.101333699  nElectrons: 108.000000
	SubspaceRotationAdjust: set factor to 0.188
ElecMinimize: Iter:  77  F: -511.171081829356410  |grad|_K:  2.242e-07  alpha:  5.928e-01  linmin:  1.823e-04  t[s]:    282.24
	FillingsUpdate:  mu: -0.101373661  nElectrons: 108.000000
	SubspaceRotationAdjust: set factor to 0.22
ElecMinimize: Iter:  78  F: -511.171082446034063  |grad|_K:  2.188e-07  alpha:  4.093e-01  linmin:  4.641e-06  t[s]:    285.44
	FillingsUpdate:  mu: -0.101332854  nElectrons: 108.000000

Dumping 'X.fillings' ... done
Dumping 'X.wfns' ... done
Dumping 'X.force' ... done
Dumping 'X.eigenvals' ... done
	SubspaceRotationAdjust: set factor to 0.263
ElecMinimize: Iter:  79  F: -511.171083078213201  |grad|_K:  2.109e-07  alpha:  4.372e-01  linmin: -2.132e-05  t[s]:    288.89
	FillingsUpdate:  mu: -0.101384258  nElectrons: 108.000000
	SubspaceRotationAdjust: set factor to 0.324
ElecMinimize: Iter:  80  F: -511.171083619943829  |grad|_K:  1.988e-07  alpha:  4.033e-01  linmin: -6.222e-05  t[s]:    291.97
	FillingsUpdate:  mu: -0.101288406  nElectrons: 108.000000
	SubspaceRotationAdjust: set factor to 0.399
ElecMinimize: Iter:  81  F: -511.171084072243445  |grad|_K:  1.896e-07  alpha:  3.782e-01  linmin: -8.660e-05  t[s]:    295.06
	FillingsUpdate:  mu: -0.101438253  nElectrons: 108.000000
	SubspaceRotationAdjust: set factor to 0.445
ElecMinimize: Iter:  82  F: -511.171084526969480  |grad|_K:  2.044e-07  alpha:  4.161e-01  linmin: -2.138e-04  t[s]:    298.49
	FillingsUpdate:  mu: -0.101134731  nElectrons: 108.000000
	SubspaceRotationAdjust: set factor to 0.386
ElecMinimize: Iter:  83  F: -511.171084841241054  |grad|_K:  2.215e-07  alpha:  2.478e-01  linmin:  3.709e-05  t[s]:    301.94
	FillingsUpdate:  mu: -0.101460778  nElectrons: 108.000000
	SubspaceRotationAdjust: set factor to 0.288
ElecMinimize: Iter:  84  F: -511.171085056906918  |grad|_K:  1.634e-07  alpha:  1.469e-01  linmin:  2.846e-05  t[s]:    305.37
	FillingsUpdate:  mu: -0.101337894  nElectrons: 108.000000
	SubspaceRotationAdjust: set factor to 0.3
ElecMinimize: Iter:  85  F: -511.171085311717945  |grad|_K:  1.322e-07  alpha:  3.129e-01  linmin: -2.951e-04  t[s]:    308.80
	FillingsUpdate:  mu: -0.101359689  nElectrons: 108.000000
	SubspaceRotationAdjust: set factor to 0.326
ElecMinimize: Iter:  86  F: -511.171085539382432  |grad|_K:  1.315e-07  alpha:  4.224e-01  linmin: -1.303e-04  t[s]:    312.22
	FillingsUpdate:  mu: -0.101433672  nElectrons: 108.000000

Dumping 'X.fillings' ... done
Dumping 'X.wfns' ... done
Dumping 'X.force' ... done
Dumping 'X.eigenvals' ... done
	SubspaceRotationAdjust: set factor to 0.346
ElecMinimize: Iter:  87  F: -511.171085793030556  |grad|_K:  1.365e-07  alpha:  4.812e-01  linmin: -7.083e-05  t[s]:    315.97
	FillingsUpdate:  mu: -0.101211967  nElectrons: 108.000000
	SubspaceRotationAdjust: set factor to 0.319
ElecMinimize: Iter:  88  F: -511.171085988821005  |grad|_K:  1.600e-07  alpha:  3.458e-01  linmin:  4.237e-06  t[s]:    319.40
	FillingsUpdate:  mu: -0.101472914  nElectrons: 108.000000
	SubspaceRotationAdjust: set factor to 0.253
ElecMinimize: Iter:  89  F: -511.171086145197194  |grad|_K:  1.373e-07  alpha:  2.025e-01  linmin: -6.670e-06  t[s]:    322.82
	FillingsUpdate:  mu: -0.101361711  nElectrons: 108.000000
	SubspaceRotationAdjust: set factor to 0.295
ElecMinimize: Iter:  90  F: -511.171086326778322  |grad|_K:  1.150e-07  alpha:  3.179e-01  linmin: -2.187e-05  t[s]:    326.31
	FillingsUpdate:  mu: -0.101268874  nElectrons: 108.000000
	SubspaceRotationAdjust: set factor to 0.332
ElecMinimize: Iter:  91  F: -511.171086532163258  |grad|_K:  1.411e-07  alpha:  5.138e-01  linmin:  3.938e-05  t[s]:    329.74
	FillingsUpdate:  mu: -0.101522299  nElectrons: 108.000000
	SubspaceRotationAdjust: set factor to 0.295
ElecMinimize: Iter:  92  F: -511.171086707880477  |grad|_K:  1.621e-07  alpha:  2.932e-01  linmin: -5.815e-06  t[s]:    333.24
	FillingsUpdate:  mu: -0.101264573  nElectrons: 108.000000
	SubspaceRotationAdjust: set factor to 0.27
ElecMinimize: Iter:  93  F: -511.171086911602913  |grad|_K:  1.505e-07  alpha:  2.563e-01  linmin:  2.561e-05  t[s]:    336.86
	FillingsUpdate:  mu: -0.101296874  nElectrons: 108.000000
	SubspaceRotationAdjust: set factor to 0.299
ElecMinimize: Iter:  94  F: -511.171087255615078  |grad|_K:  1.715e-07  alpha:  5.093e-01  linmin:  1.464e-04  t[s]:    340.46
	FillingsUpdate:  mu: -0.101414145  nElectrons: 108.000000

Dumping 'X.fillings' ... done
Dumping 'X.wfns' ... done
Dumping 'X.force' ... done
Dumping 'X.eigenvals' ... done
	SubspaceRotationAdjust: set factor to 0.323
ElecMinimize: Iter:  95  F: -511.171087601052136  |grad|_K:  1.749e-07  alpha:  3.939e-01  linmin:  4.671e-05  t[s]:    344.24
	FillingsUpdate:  mu: -0.101148534  nElectrons: 108.000000
	SubspaceRotationAdjust: set factor to 0.306
ElecMinimize: Iter:  96  F: -511.171087857738939  |grad|_K:  1.944e-07  alpha:  2.769e-01  linmin:  9.763e-06  t[s]:    347.67
	FillingsUpdate:  mu: -0.101411841  nElectrons: 108.000000
	SubspaceRotationAdjust: set factor to 0.325
ElecMinimize: Iter:  97  F: -511.171088173407554  |grad|_K:  1.884e-07  alpha:  2.768e-01  linmin:  7.084e-05  t[s]:    351.09
	FillingsUpdate:  mu: -0.101398083  nElectrons: 108.000000
	SubspaceRotationAdjust: set factor to 0.426
ElecMinimize: Iter:  98  F: -511.171088560956775  |grad|_K:  2.032e-07  alpha:  3.683e-01  linmin:  1.129e-04  t[s]:    354.52
	FillingsUpdate:  mu: -0.101171208  nElectrons: 108.000000
	SubspaceRotationAdjust: set factor to 0.392
ElecMinimize: Iter:  99  F: -511.171089016039275  |grad|_K:  2.854e-07  alpha:  3.725e-01  linmin:  1.101e-04  t[s]:    357.95
	FillingsUpdate:  mu: -0.101428545  nElectrons: 108.000000
	SubspaceRotationAdjust: set factor to 0.472
ElecMinimize: Iter: 100  F: -511.171089394269416  |grad|_K:  2.602e-07  alpha:  1.283e-01  linmin: -8.389e-04  t[s]:    361.39
	FillingsUpdate:  mu: -0.101555284  nElectrons: 108.000000
	SubspaceRotationAdjust: set factor to 0.375
ElecMinimize: Iter: 101  F: -511.171089845093434  |grad|_K:  2.984e-07  alpha:  1.999e-01  linmin:  9.555e-04  t[s]:    364.83
	FillingsUpdate:  mu: -0.101432757  nElectrons: 108.000000
	SubspaceRotationAdjust: set factor to 0.398
ElecMinimize: Iter: 102  F: -511.171089962962583  |grad|_K:  2.511e-07  alpha:  4.372e-02  linmin: -7.194e-04  t[s]:    368.26
	FillingsUpdate:  mu: -0.101202800  nElectrons: 108.000000

Dumping 'X.fillings' ... done
Dumping 'X.wfns' ... done
Dumping 'X.force' ... done
Dumping 'X.eigenvals' ... done
	SubspaceRotationAdjust: set factor to 0.346
ElecMinimize: Iter: 103  F: -511.171090122099145  |grad|_K:  2.616e-07  alpha:  7.403e-02  linmin:  2.138e-04  t[s]:    372.05
	FillingsUpdate:  mu: -0.101146152  nElectrons: 108.000000
	SubspaceRotationAdjust: set factor to 0.277
ElecMinimize: Iter: 104  F: -511.171090238350871  |grad|_K:  2.599e-07  alpha:  5.776e-02  linmin: -5.503e-07  t[s]:    375.48
	FillingsUpdate:  mu: -0.101235969  nElectrons: 108.000000
	SubspaceRotationAdjust: set factor to 0.278
ElecMinimize: Iter: 105  F: -511.171090337386715  |grad|_K:  2.181e-07  alpha:  4.811e-02  linmin: -2.097e-06  t[s]:    378.90
	FillingsUpdate:  mu: -0.101369180  nElectrons: 108.000000
	SubspaceRotationAdjust: set factor to 0.303
ElecMinimize: Iter: 106  F: -511.171090410794989  |grad|_K:  2.049e-07  alpha:  5.121e-02  linmin:  2.637e-05  t[s]:    382.33
ElecMinimize: Converged (|Delta F|<1.000000e-07 for 2 iters).
Setting wave functions to eigenvectors of Hamiltonian

# Ionic positions in lattice coordinates:
ion Na   0.000000000000000   0.000000000000000   0.254780000000000 1
ion Na   0.500000000000000   0.500000000000000   0.299360000000000 1
ion Na   0.000000000000000   0.000000000000000   0.343950000000000 1
ion Na   0.500000000000000   0.500000000000000   0.388540000000000 1
ion Na   0.000000000000000   0.000000000000000   0.433120000000000 1
ion Na   0.500000000000000   0.500000000000000   0.477710000000000 1
ion Na   0.000000000000000   0.000000000000000   0.522290000000000 1
ion Na   0.500000000000000   0.500000000000000   0.566880000000000 1
ion Na   0.000000000000000   0.000000000000000   0.611460000000000 1
ion Na   0.500000000000000   0.500000000000000   0.656050000000000 1
ion Na   0.000000000000000   0.000000000000000   0.700640000000000 1
ion Na   0.500000000000000   0.500000000000000   0.745220000000000 1

# Forces in Lattice coordinates:
force Na  -0.000000000000000   0.000000000000000  -0.029237283422979 1
force Na  -0.000000000000000   0.000000000000000   0.021221877791763 1
force Na   0.000000000000000  -0.000000000000000   0.000651092396849 1
force Na   0.000000000000000  -0.000000000000000   0.000090212664988 1
force Na  -0.000000000000000   0.000000000000000   0.005709135432760 1
force Na   0.000000000000000  -0.000000000000000   0.001594763141924 1
force Na   0.000000000000000   0.000000000000000  -0.001594763141470 1
force Na   0.000000000000000   0.000000000000000  -0.005709135432760 1
force Na   0.000000000000000  -0.000000000000000  -0.000090212664988 1
force Na  -0.000000000000000  -0.000000000000000  -0.000651092395940 1
force Na  -0.000000000000000  -0.000000000000000  -0.021221877792673 1
force Na   0.000000000000000  -0.000000000000000   0.029237283422068 1

# Energy components:
   Eewald =    -9423.4938425633117731
       EH =    -9014.4092096228851005
     Eloc =    17896.8122185954198358
      Enl =     -155.1208344408846358
   Epulay =       -0.0000073252205447
      Exc =      -75.1296536030728959
       KE =      260.2177121866759535
-------------------------------------
     Etot =     -511.1236167732791955
       TS =        0.0474736375157722
-------------------------------------
        F =     -511.1710904107949887

IonicMinimize: Iter:   0  F: -511.171090410794989  |grad|_K:  9.697e-05  t[s]:    382.82
IonicMinimize: Converged (|grad|_K<1.000000e-04).

#--- Lowdin population analysis ---
# oxidation-state Na +0.076 +0.051 +0.048 +0.056 +0.054 +0.054 +0.054 +0.054 +0.056 +0.048 +0.051 +0.076


Dumping 'X.fillings' ... done
Dumping 'X.wfns' ... done
Dumping 'X.ionpos' ... done
Dumping 'X.lattice' ... done
Dumping 'X.n' ... done
Dumping 'X.eigenvals' ... done
Dumping 'X.eigStats' ... 
	eMin: -2.063311 at state 0 ( [ +0.000000 +0.000000 +0.000000 ] spin 0 )
	HOMO: -0.102651 at state 17 ( [ +0.272727 +0.454545 +0.000000 ] spin 0 )
	mu  : -0.101369
	LUMO: -0.100922 at state 14 ( [ +0.181818 +0.454545 +0.000000 ] spin 0 )
	eMax: +0.000465 at state 11 ( [ +0.181818 +0.181818 +0.000000 ] spin 0 )
	HOMO-LUMO gap: +0.001729
	Optical gap  : +0.005244 at state 17 ( [ +0.272727 +0.454545 +0.000000 ] spin 0 )
Dumping 'X.dos' ... done.
End date and time: Thu Nov  9 00:28:51 2023  (Duration: 0-0:06:23.35)
Done!

*************** JDFTx 1.7.0  ***************

Start date and time: Thu Nov  9 00:28:53 2023
Executable jdftx with command-line: -m -i X.in -o X.out
Running on hosts (process indices):  ac0731 (0-20)
Divided in process groups (process indices):  0 (0)  1 (1)  2 (2)  3 (3)  4 (4)  5 (5)  6 (6)  7 (7)  8 (8)  9 (9)  10 (10)  11 (11)  12 (12)  13 (13)  14 (14)  15 (15)  16 (16)  17 (17)  18 (18)  19 (19)  20 (20)
Resource initialization completed at t[s]:      0.02
Run totals: 21 processes, 21 threads, 0 GPUs


Input parsed successfully to the following command list (including defaults):

basis kpoint-dependent
cache-projectors no
coords-type Lattice
core-overlap-check vector
coulomb-interaction Slab 001
coulomb-truncation-embed 0 0 0.5
davidson-band-ratio 1.1
density-of-states Etol 1.000000e-06 Esigma 0.000000e+00 \
		Complete \
	Total \
		Occupied \
	Total
dump End State IonicPositions Lattice ElecDensity CoreDensity EigStats DOS
dump Electronic State Forces
dump Ionic State IonicPositions Forces Lattice DOS
dump-interval Electronic 8
dump-interval Ionic 4
dump-name X.$var
elec-cutoff 30
elec-eigen-algo Davidson
elec-ex-corr gga-PBE
elec-smearing Fermi 0.0095
electronic-minimize  \
	dirUpdateScheme      FletcherReeves \
	linminMethod         DirUpdateRecommended \
	nIterations          2000 \
	history              15 \
	knormThreshold       0 \
	energyDiffThreshold  1e-07 \
	nEnergyDiff          2 \
	alphaTstart          1 \
	alphaTmin            1e-10 \
	updateTestStepSize   yes \
	alphaTreduceFactor   0.1 \
	alphaTincreaseFactor 3 \
	nAlphaAdjustMax      3 \
	wolfeEnergy          0.0001 \
	wolfeGradient        0.9 \
	fdTest               no
exchange-regularization WignerSeitzTruncated
fluid None
fluid-ex-corr (null) lda-PZ
fluid-gummel-loop 10 1.000000e-05
fluid-minimize  \
	dirUpdateScheme      PolakRibiere \
	linminMethod         DirUpdateRecommended \
	nIterations          100 \
	history              15 \
	knormThreshold       0 \
	energyDiffThreshold  0 \
	nEnergyDiff          2 \
	alphaTstart          1 \
	alphaTmin            1e-10 \
	updateTestStepSize   yes \
	alphaTreduceFactor   0.1 \
	alphaTincreaseFactor 3 \
	nAlphaAdjustMax      3 \
	wolfeEnergy          0.0001 \
	wolfeGradient        0.9 \
	fdTest               no
fluid-solvent H2O 55.338 ScalarEOS \
	epsBulk 78.4 \
	pMol 0.92466 \
	epsInf 1.77 \
	Pvap 1.06736e-10 \
	sigmaBulk 4.62e-05 \
	Rvdw 2.61727 \
	Res 1.42 \
	tauNuc 343133 \
	poleEl 15 7 1
forces-output-coords Positions
ion Na   0.000000000000000   0.000000000000000   0.254780000000000 1
ion Na   0.500000000000000   0.500000000000000   0.299360000000000 1
ion Na   0.000000000000000   0.000000000000000   0.343950000000000 1
ion Na   0.500000000000000   0.500000000000000   0.388540000000000 1
ion Na   0.000000000000000   0.000000000000000   0.433120000000000 1
ion Na   0.500000000000000   0.500000000000000   0.477710000000000 1
ion Na   0.000000000000000   0.000000000000000   0.522290000000000 1
ion Na   0.500000000000000   0.500000000000000   0.566880000000000 1
ion Na   0.000000000000000   0.000000000000000   0.611460000000000 1
ion Na   0.500000000000000   0.500000000000000   0.656050000000000 1
ion Na   0.000000000000000   0.000000000000000   0.700640000000000 1
ion Na   0.500000000000000   0.500000000000000   0.745220000000000 1
ion-species SG15/$ID_ONCV_PBE.upf
ion-width 0
ionic-minimize  \
	dirUpdateScheme      L-BFGS \
	linminMethod         DirUpdateRecommended \
	nIterations          0 \
	history              15 \
	knormThreshold       0.0001 \
	energyDiffThreshold  1e-06 \
	nEnergyDiff          2 \
	alphaTstart          1 \
	alphaTmin            1e-10 \
	updateTestStepSize   yes \
	alphaTreduceFactor   0.1 \
	alphaTincreaseFactor 3 \
	nAlphaAdjustMax      3 \
	wolfeEnergy          0.0001 \
	wolfeGradient        0.9 \
	fdTest               no
kpoint   0.000000000000   0.000000000000   0.000000000000  1.00000000000000
kpoint-folding 11 11 1 
latt-move-scale 1 1 1
latt-scale 1 1 1 
lattice  \
	   7.936714821600003   -0.000000000000000   -0.000000000000000  \
	   0.000000000000000    7.936714821600003   -0.000000000000000  \
	   0.000000000000000    0.000000000000000   89.005527107999995 
lattice-minimize  \
	dirUpdateScheme      L-BFGS \
	linminMethod         DirUpdateRecommended \
	nIterations          0 \
	history              15 \
	knormThreshold       0 \
	energyDiffThreshold  1e-06 \
	nEnergyDiff          2 \
	alphaTstart          1 \
	alphaTmin            1e-10 \
	updateTestStepSize   yes \
	alphaTreduceFactor   0.1 \
	alphaTincreaseFactor 3 \
	nAlphaAdjustMax      3 \
	wolfeEnergy          0.0001 \
	wolfeGradient        0.9 \
	fdTest               no
lcao-params -1 1e-06 0.0095
pcm-variant GLSSA13
spintype no-spin
subspace-rotation-factor 1 yes
symmetries automatic
symmetry-threshold 0.0001
wavefunction read X.wfns 60 20.000000



---------- Setting up symmetries ----------

Found 16 point-group symmetries of the bravais lattice
Found 16 space-group symmetries with basis
Applied RMS atom displacement 0 bohrs to make symmetries exact.

---------- Initializing the Grid ----------
R = 
[      7.93671            0            0  ]
[            0      7.93671            0  ]
[            0            0      89.0055  ]
unit cell volume = 5606.59
G =
[   0.791661          0          0  ]
[         -0   0.791661          0  ]
[          0         -0  0.0705932  ]
Minimum fftbox size, Smin = [  40  40  440  ]
Chosen fftbox size, S = [  40  40  448  ]

---------- Exchange Correlation functional ----------
Initalized PBE GGA exchange.
Initalized PBE GGA correlation.

---------- Setting up pseudopotentials ----------
Width of ionic core gaussian charges (only for fluid interactions / plotting) set to 0

Reading pseudopotential file '/net/software/testing/software/jdftx/1.7.0-foss-2021b-mkl/share/jdftx/pseudopotentials/SG15/Na_ONCV_PBE.upf':
  'Na' pseudopotential, 'PBE' functional
  Generated using ONCVPSP code by D. R. Hamann
  Author: Martin Schlipf and Francois Gygi  Date: 150915.
  9 valence electrons, 3 orbitals, 4 projectors, 1992 radial grid points, with lMax = 1
  Transforming local potential to a uniform radial grid of dG=0.02 with 1376 points.
  Transforming nonlocal projectors to a uniform radial grid of dG=0.02 with 528 points.
    2S    l: 0   occupation:  2.0   eigenvalue: -2.085640
    2P    l: 1   occupation:  6.0   eigenvalue: -1.053708
    3S    l: 0   occupation:  1.0   eigenvalue: -0.100838
  Transforming atomic orbitals to a uniform radial grid of dG=0.02 with 528 points.
  Core radius for overlap checks: 2.01 bohrs.
  Reading pulay file /net/software/testing/software/jdftx/1.7.0-foss-2021b-mkl/share/jdftx/pseudopotentials/SG15/Na_ONCV_PBE.pulay ... using dE_dnG = -3.261361e-04 computed for Ecut = 30.

Initialized 1 species with 12 total atoms.

Folded 1 k-points by 11x11x1 to 121 k-points.

---------- Setting up k-points, bands, fillings ----------
Reduced to 21 k-points under symmetry. 
Computing the number of bands and number of electrons
Calculating initial fillings.
nElectrons: 108.000000   nBands: 60   nStates: 21

----- Setting up reduced wavefunction bases (one per k-point) -----
average nbasis = 44005.347 , ideal nbasis = 44002.202

----- Initializing Supercell corresponding to k-point mesh -----
Lattice vector linear combinations in supercell:
[  11   0   0  ]
[   0  11   0  ]
[   0   0   1  ]
Supercell lattice vectors:
[  87.3039  0  0  ]
[  0  87.3039  0  ]
[  0  0  89.0055  ]

---------- Setting up coulomb interaction ----------
Setting up double-sized grid for truncated Coulomb potentials:
R = 
[      7.93671            0            0  ]
[            0      7.93671            0  ]
[            0            0      178.011  ]
unit cell volume = 11213.2
G =
[   0.791661          0          0  ]
[         -0   0.791661          0  ]
[          0         -0  0.0352966  ]
Chosen fftbox size, S = [  40  40  896  ]
Integer grid location selected as the embedding center:
   Grid: [  0  0  224  ]
   Lattice: [  0  0  0.5  ]
   Cartesian: [  0  0  44.5028  ]
Constructing Wigner-Seitz cell: 6 faces (6 quadrilaterals, 0 hexagons)
Range-separation parameter for embedded mesh potentials due to point charges: 0.562315 bohrs.
Initialized slab truncation along lattice direction 001

---------- Setting up 2D ewald sum ----------
Optimum gaussian width for ewald sums = 4.734710 bohr.
Real space sums over 225 unit cells with max indices [  7  7  0  ]
Reciprocal space sums over 81 terms with max indices [  4  4  0  ]

---------- Allocating electronic variables ----------
Initializing wave functions:  reading from 'X.wfns'


---- Citations for features of the code used in this run ----

   Software package:
      R. Sundararaman, K. Letchworth-Weaver, K.A. Schwarz, D. Gunceler, Y. Ozhabes and T.A. Arias, 'JDFTx: software for joint density-functional theory', SoftwareX 6, 278 (2017)

   gga-PBE exchange-correlation functional:
      J.P. Perdew, K. Burke and M. Ernzerhof, Phys. Rev. Lett. 77, 3865 (1996)

   Pseudopotentials:
      M Schlipf and F Gygi, Comput. Phys. Commun. 196, 36 (2015)

   Truncated Coulomb potentials:
      R. Sundararaman and T.A. Arias, Phys. Rev. B 87, 165122 (2013)

   Total energy minimization with Auxiliary Hamiltonian:
      C. Freysoldt, S. Boeck, and J. Neugebauer, Phys. Rev. B 79, 241103(R) (2009)

   Linear-tetrahedron sampling for density of states:
      G. Lehmann and M. Taut, Phys. status solidi (b) 54, 469 (1972)

This list may not be complete. Please suggest additional citations or
report any other bugs at https://github.com/shankar1729/jdftx/issues

Initialization completed successfully at t[s]:      1.34


Setting the auxilliary hamiltonian equal to the subspace hamiltonian.

-------- Electronic minimization -----------
	FillingsUpdate:  mu: -0.087780124  nElectrons: 108.000000
ElecMinimize: Iter:   0  F: -511.151308472260382  |grad|_K:  4.825e-05  alpha:  1.000e+00
	FillingsUpdate:  mu: -0.146951127  nElectrons: 108.000000
	SubspaceRotationAdjust: set factor to 0.839
ElecMinimize: Iter:   1  F: -511.168881063177651  |grad|_K:  3.494e-05  alpha:  1.020e-01  linmin: -1.056e-03  t[s]:     16.91
	FillingsUpdate:  mu: -0.079137025  nElectrons: 108.000000
	SubspaceRotationAdjust: set factor to 0.43
ElecMinimize: Iter:   2  F: -511.177215707754442  |grad|_K:  1.924e-05  alpha:  9.243e-02  linmin:  1.052e-04  t[s]:     23.92
	FillingsUpdate:  mu: -0.120835939  nElectrons: 108.000000
	SubspaceRotationAdjust: set factor to 0.305
ElecMinimize: Iter:   3  F: -511.179335808063740  |grad|_K:  1.223e-05  alpha:  1.052e-01  linmin:  5.740e-05  t[s]:     30.93
ElecMinimize: 	Wrong curvature in test step, increasing alphaT to 3.156292e-01.
	FillingsUpdate:  mu: -0.116771735  nElectrons: 108.000000
	SubspaceRotationAdjust: set factor to 0.252
ElecMinimize: Iter:   4  F: -511.181064876064056  |grad|_K:  1.002e-05  alpha: -1.805e+00  linmin: -9.307e-04  t[s]:     37.54
	FillingsUpdate:  mu: -0.076336973  nElectrons: 108.000000
	SubspaceRotationAdjust: set factor to 0.146
ElecMinimize: Iter:   5  F: -511.185265119965436  |grad|_K:  1.138e-05  alpha:  2.732e-01  linmin: -7.729e-04  t[s]:     44.55
ElecMinimize: 	Step increased F by 6.243009e-03, reducing alpha to 6.804288e-02.
	FillingsUpdate:  mu: -0.077814920  nElectrons: 108.000000
	SubspaceRotationAdjust: set factor to 0.111
	SubspaceRotationAdjust: resetting CG because factor has changed by 0.110993
ElecMinimize: 	State modified externally: resetting search direction.
ElecMinimize: Iter:   6  F: -511.186858847150688  |grad|_K:  8.645e-06  alpha:  6.804e-02
ElecMinimize: 	Predicted alpha/alphaT>3.000000, increasing alphaT to 2.041286e-01.
	FillingsUpdate:  mu: -0.101599845  nElectrons: 108.000000

Dumping 'X.fillings' ... done
Dumping 'X.wfns' ... done
Dumping 'X.force' ... done
Dumping 'X.eigenvals' ... done
	SubspaceRotationAdjust: set factor to 0.0798
ElecMinimize: Iter:   7  F: -511.187919058734224  |grad|_K:  3.477e-06  alpha:  2.560e-01  linmin:  2.166e-04  t[s]:     70.09
ElecMinimize: 	Predicted alpha/alphaT>3.000000, increasing alphaT to 7.678993e-01.
	FillingsUpdate:  mu: -0.117715680  nElectrons: 108.000000
	SubspaceRotationAdjust: set factor to 0.0932
ElecMinimize: Iter:   8  F: -511.188723917039397  |grad|_K:  6.239e-06  alpha:  1.219e+00  linmin:  7.436e-05  t[s]:     79.18
	FillingsUpdate:  mu: -0.129516859  nElectrons: 108.000000
	SubspaceRotationAdjust: set factor to 0.0895
ElecMinimize: Iter:   9  F: -511.191655961582740  |grad|_K:  9.536e-06  alpha:  1.492e+00  linmin:  3.882e-04  t[s]:     86.17
	FillingsUpdate:  mu: -0.120232397  nElectrons: 108.000000
	SubspaceRotationAdjust: set factor to 0.098
ElecMinimize: Iter:  10  F: -511.192367897729923  |grad|_K:  6.678e-06  alpha:  1.341e-01  linmin: -6.274e-04  t[s]:     93.17
[...]
	FillingsUpdate:  mu: -0.097466546  nElectrons: 108.000000
	SubspaceRotationAdjust: set factor to 0.168
ElecMinimize: Iter:  24  F: -511.180405612645814  |grad|_K:  2.376e-08  alpha:  3.957e-01  linmin:  1.735e-05  t[s]:   1206.28
	FillingsUpdate:  mu: -0.097511918  nElectrons: 108.000000
	SubspaceRotationAdjust: set factor to 0.156
ElecMinimize: Iter:  25  F: -511.180405636487535  |grad|_K:  1.848e-08  alpha:  3.523e-01  linmin:  7.334e-05  t[s]:   1222.61
	FillingsUpdate:  mu: -0.097479110  nElectrons: 108.000000
	SubspaceRotationAdjust: set factor to 0.178
ElecMinimize: Iter:  26  F: -511.180405651934905  |grad|_K:  1.451e-08  alpha:  3.860e-01  linmin: -3.259e-04  t[s]:   1239.06
	FillingsUpdate:  mu: -0.097476075  nElectrons: 108.000000
	SubspaceRotationAdjust: set factor to 0.212
ElecMinimize: Iter:  27  F: -511.180405663803242  |grad|_K:  1.380e-08  alpha:  4.592e-01  linmin:  2.297e-04  t[s]:   1255.36
	FillingsUpdate:  mu: -0.097518093  nElectrons: 108.000000
	SubspaceRotationAdjust: set factor to 0.23
ElecMinimize: Iter:  28  F: -511.180405673143241  |grad|_K:  1.289e-08  alpha:  4.160e-01  linmin:  1.633e-04  t[s]:   1271.68
	FillingsUpdate:  mu: -0.097492174  nElectrons: 108.000000
	SubspaceRotationAdjust: set factor to 0.224
ElecMinimize: Iter:  29  F: -511.180405680082117  |grad|_K:  1.150e-08  alpha:  3.506e-01  linmin: -6.657e-05  t[s]:   1287.99
ElecMinimize: Converged (|Delta F|<1.000000e-08 for 2 iters).
Setting wave functions to eigenvectors of Hamiltonian
Converging empty states (this may take a while): |deigs|: 1.445e-07
IonicMinimize: 	Wolfe criterion not satisfied: alpha: 1  (E-E0)/|gdotd0|: 0.654387  gdotd/gdotd0: -2.32478 (taking cubic step)

-------- Electronic minimization -----------
	FillingsUpdate:  mu: -0.096676176  nElectrons: 108.000000
ElecMinimize: Iter:   0  F: -511.180124028491718  |grad|_K:  2.821e-06  alpha:  1.000e+00
	FillingsUpdate:  mu: -0.098932500  nElectrons: 108.000000
	SubspaceRotationAdjust: set factor to 0.228
ElecMinimize: Iter:   1  F: -511.180397867958447  |grad|_K:  6.828e-07  alpha:  2.887e-01  linmin:  3.992e-04  t[s]:   1337.26
	FillingsUpdate:  mu: -0.096396854  nElectrons: 108.000000
	SubspaceRotationAdjust: set factor to 0.158
ElecMinimize: Iter:   2  F: -511.180413960436795  |grad|_K:  5.497e-07  alpha:  2.895e-01  linmin: -2.811e-05  t[s]:   1353.87
	FillingsUpdate:  mu: -0.098543021  nElectrons: 108.000000
	SubspaceRotationAdjust: set factor to 0.11
ElecMinimize: Iter:   3  F: -511.180421964579239  |grad|_K:  2.957e-07  alpha:  2.218e-01  linmin:  5.303e-06  t[s]:   1370.19
	FillingsUpdate:  mu: -0.098466624  nElectrons: 108.000000
	SubspaceRotationAdjust: set factor to 0.148
ElecMinimize: Iter:   4  F: -511.180427471991948  |grad|_K:  2.145e-07  alpha:  5.277e-01  linmin: -2.084e-05  t[s]:   1386.53
	FillingsUpdate:  mu: -0.097452366  nElectrons: 108.000000
	SubspaceRotationAdjust: set factor to 0.126
ElecMinimize: Iter:   5  F: -511.180430209484427  |grad|_K:  1.714e-07  alpha:  4.982e-01  linmin: -4.647e-06  t[s]:   1401.97
	FillingsUpdate:  mu: -0.098055383  nElectrons: 108.000000
	SubspaceRotationAdjust: set factor to 0.091
ElecMinimize: Iter:   6  F: -511.180431577112074  |grad|_K:  1.234e-07  alpha:  3.901e-01  linmin:  1.113e-06  t[s]:   1418.52
	FillingsUpdate:  mu: -0.097657899  nElectrons: 108.000000

Dumping 'X.fillings' ... done
Dumping 'X.wfns' ... done
Dumping 'X.ionpos' ... done
Dumping 'X.force' ... done
Dumping 'X.eigenvals' ... done
	SubspaceRotationAdjust: set factor to 0.101
ElecMinimize: Iter:   7  F: -511.180432483626362  |grad|_K:  8.591e-08  alpha:  4.988e-01  linmin:  8.109e-06  t[s]:   1435.93
	FillingsUpdate:  mu: -0.097406478  nElectrons: 108.000000
	SubspaceRotationAdjust: set factor to 0.103
ElecMinimize: Iter:   8  F: -511.180432946909434  |grad|_K:  6.630e-08  alpha:  5.260e-01  linmin: -2.340e-05  t[s]:   1452.26
	FillingsUpdate:  mu: -0.097569180  nElectrons: 108.000000
	SubspaceRotationAdjust: set factor to 0.0985
ElecMinimize: Iter:   9  F: -511.180433260341829  |grad|_K:  6.021e-08  alpha:  5.960e-01  linmin: -3.515e-05  t[s]:   1468.64
	FillingsUpdate:  mu: -0.097481658  nElectrons: 108.000000
	SubspaceRotationAdjust: set factor to 0.104
ElecMinimize: Iter:  10  F: -511.180433530762571  |grad|_K:  5.546e-08  alpha:  6.247e-01  linmin: -5.519e-06  t[s]:   1485.27
	FillingsUpdate:  mu: -0.097441726  nElectrons: 108.000000
	SubspaceRotationAdjust: set factor to 0.108
ElecMinimize: Iter:  11  F: -511.180433730319692  |grad|_K:  4.286e-08  alpha:  5.427e-01  linmin: -3.895e-07  t[s]:   1501.56
	FillingsUpdate:  mu: -0.097507098  nElectrons: 108.000000
	SubspaceRotationAdjust: set factor to 0.112
ElecMinimize: Iter:  12  F: -511.180433845219284  |grad|_K:  3.351e-08  alpha:  5.246e-01  linmin:  1.731e-05  t[s]:   1517.87
	FillingsUpdate:  mu: -0.097523110  nElectrons: 108.000000
	SubspaceRotationAdjust: set factor to 0.119
ElecMinimize: Iter:  13  F: -511.180433911782700  |grad|_K:  2.713e-08  alpha:  4.994e-01  linmin:  9.979e-06  t[s]:   1534.17
	FillingsUpdate:  mu: -0.097535607  nElectrons: 108.000000
	SubspaceRotationAdjust: set factor to 0.123
ElecMinimize: Iter:  14  F: -511.180433956936156  |grad|_K:  2.347e-08  alpha:  5.179e-01  linmin:  4.849e-05  t[s]:   1550.46
	FillingsUpdate:  mu: -0.097552800  nElectrons: 108.000000

Dumping 'X.fillings' ... done
Dumping 'X.wfns' ... done
Dumping 'X.ionpos' ... done
Dumping 'X.force' ... done
Dumping 'X.eigenvals' ... done
	SubspaceRotationAdjust: set factor to 0.124
ElecMinimize: Iter:  15  F: -511.180433989119877  |grad|_K:  2.043e-08  alpha:  4.937e-01  linmin:  4.581e-06  t[s]:   1578.02
	FillingsUpdate:  mu: -0.097580137  nElectrons: 108.000000
	SubspaceRotationAdjust: set factor to 0.125
ElecMinimize: Iter:  16  F: -511.180434014903881  |grad|_K:  1.757e-08  alpha:  5.159e-01  linmin:  5.067e-05  t[s]:   1594.31
	FillingsUpdate:  mu: -0.097594853  nElectrons: 108.000000
	SubspaceRotationAdjust: set factor to 0.128
ElecMinimize: Iter:  17  F: -511.180434033592860  |grad|_K:  1.452e-08  alpha:  5.131e-01  linmin: -2.936e-05  t[s]:   1610.60
	FillingsUpdate:  mu: -0.097588915  nElectrons: 108.000000
	SubspaceRotationAdjust: set factor to 0.131
ElecMinimize: Iter:  18  F: -511.180434046696917  |grad|_K:  1.201e-08  alpha:  5.141e-01  linmin: -8.616e-05  t[s]:   1626.93
	FillingsUpdate:  mu: -0.097602239  nElectrons: 108.000000
	SubspaceRotationAdjust: set factor to 0.133
ElecMinimize: Iter:  19  F: -511.180434055515491  |grad|_K:  9.708e-09  alpha:  5.070e-01  linmin: -4.166e-04  t[s]:   1643.20
	FillingsUpdate:  mu: -0.097593537  nElectrons: 108.000000
	SubspaceRotationAdjust: set factor to 0.137
ElecMinimize: Iter:  20  F: -511.180434061378207  |grad|_K:  8.274e-09  alpha:  5.092e-01  linmin: -3.031e-04  t[s]:   1658.90
ElecMinimize: Converged (|Delta F|<1.000000e-08 for 2 iters).
Setting wave functions to eigenvectors of Hamiltonian
Converging empty states (this may take a while): |deigs|: 1.016e-07

# Ionic positions in lattice coordinates:
ion Na   0.000000000000000  -0.000000000000000   0.254671260091721 1
ion Na   0.500000000000000   0.500000000000000   0.299544113745368 1
ion Na   0.000000000000000  -0.000000000000000   0.344022617303929 1
ion Na   0.500000000000000   0.500000000000000   0.388372824301794 1
ion Na  -0.000000000000000   0.000000000000000   0.433184513414118 1
ion Na   0.500000000000000   0.500000000000000   0.477757665193258 1
ion Na   0.000000000000000  -0.000000000000000   0.522242334806743 1
ion Na   0.500000000000000   0.500000000000000   0.566815486585882 1
ion Na  -0.000000000000000   0.000000000000000   0.611627175698206 1
ion Na   0.500000000000000   0.500000000000000   0.655977382696071 1
ion Na   0.000000000000000   0.000000000000000   0.700455886254632 1
ion Na   0.500000000000000   0.500000000000000   0.745328739908279 1

# Forces in Lattice coordinates:
force Na  -0.000000000000000  -0.000000000000000  -0.000781429631650 1
force Na   0.000000000000000   0.000000000000000   0.001267658476105 1
force Na   0.000000000000000   0.000000000000000  -0.000702661411579 1
force Na  -0.000000000000000  -0.000000000000000  -0.001876938884777 1
force Na   0.000000000000000  -0.000000000000000  -0.003215616003787 1
force Na   0.000000000000000  -0.000000000000000   0.000735724051560 1
force Na   0.000000000000000  -0.000000000000000  -0.000735724051332 1
force Na   0.000000000000000  -0.000000000000000   0.003215616003787 1
force Na  -0.000000000000000   0.000000000000000   0.001876938884777 1
force Na   0.000000000000000   0.000000000000000   0.000702661411579 1
force Na   0.000000000000000   0.000000000000000  -0.001267658476105 1
force Na  -0.000000000000000   0.000000000000000   0.000781429631650 1

# Energy components:
   Eewald =    -9422.9358471714022016
       EH =    -9013.3742255673096224
     Eloc =    17895.1560940351009776
      Enl =     -155.1755183322400740
   Epulay =        0.0000000299405529
      Exc =      -75.1451543629337095
       KE =      260.2946761175572874
-------------------------------------
     Etot =     -511.1799752512885107
       TS =        0.0004588100897083
-------------------------------------
        F =     -511.1804340613782074

IonicMinimize: Iter:   2  F: -511.180434061378207  |grad|_K:  1.096e-05  alpha:  3.038e-01  linmin: -3.421e-01  t[s]:   1679.22

#--- Lowdin population analysis ---
# oxidation-state Na +0.050 +0.052 +0.032 +0.049 +0.039 +0.039 +0.039 +0.039 +0.049 +0.032 +0.052 +0.050


-------- Electronic minimization -----------
	FillingsUpdate:  mu: -0.097519489  nElectrons: 108.000000
ElecMinimize: Iter:   0  F: -511.180431258959175  |grad|_K:  2.736e-07  alpha:  1.000e+00
	FillingsUpdate:  mu: -0.097589611  nElectrons: 108.000000
	SubspaceRotationAdjust: set factor to 0.15
ElecMinimize: Iter:   1  F: -511.180433841898605  |grad|_K:  5.997e-08  alpha:  2.892e-01  linmin:  3.744e-05  t[s]:   1707.87
	FillingsUpdate:  mu: -0.097482450  nElectrons: 108.000000
	SubspaceRotationAdjust: set factor to 0.163
ElecMinimize: Iter:   2  F: -511.180434017097639  |grad|_K:  3.227e-08  alpha:  4.083e-01  linmin:  7.652e-06  t[s]:   1724.22
	FillingsUpdate:  mu: -0.097584479  nElectrons: 108.000000
	SubspaceRotationAdjust: set factor to 0.142
ElecMinimize: Iter:   3  F: -511.180434074442246  |grad|_K:  2.457e-08  alpha:  4.637e-01  linmin:  2.539e-04  t[s]:   1740.47
	FillingsUpdate:  mu: -0.097476712  nElectrons: 108.000000
	SubspaceRotationAdjust: set factor to 0.102
ElecMinimize: Iter:   4  F: -511.180434100815432  |grad|_K:  1.874e-08  alpha:  3.653e-01  linmin:  1.036e-04  t[s]:   1756.78
	FillingsUpdate:  mu: -0.097551463  nElectrons: 108.000000
	SubspaceRotationAdjust: set factor to 0.107
ElecMinimize: Iter:   5  F: -511.180434122699523  |grad|_K:  1.330e-08  alpha:  5.214e-01  linmin: -5.375e-05  t[s]:   1773.04
	FillingsUpdate:  mu: -0.097582562  nElectrons: 108.000000
	SubspaceRotationAdjust: set factor to 0.123
ElecMinimize: Iter:   6  F: -511.180434134652728  |grad|_K:  1.008e-08  alpha:  5.631e-01  linmin: -5.320e-04  t[s]:   1789.35
	FillingsUpdate:  mu: -0.097560623  nElectrons: 108.000000

Dumping 'X.fillings' ... done
Dumping 'X.wfns' ... done
Dumping 'X.ionpos' ... done
Dumping 'X.force' ... done
Dumping 'X.eigenvals' ... done
	SubspaceRotationAdjust: set factor to 0.108
ElecMinimize: Iter:   7  F: -511.180434141099681  |grad|_K:  8.098e-09  alpha:  5.076e-01  linmin:  1.594e-03  t[s]:   1807.33
	FillingsUpdate:  mu: -0.097591433  nElectrons: 108.000000
	SubspaceRotationAdjust: set factor to 0.102
ElecMinimize: Iter:   8  F: -511.180434144456967  |grad|_K:  5.637e-09  alpha:  4.456e-01  linmin: -2.206e-03  t[s]:   1823.57
ElecMinimize: Converged (|Delta F|<1.000000e-08 for 2 iters).
Setting wave functions to eigenvectors of Hamiltonian
Converging empty states (this may take a while): |deigs|: 1.262e-09

# Ionic positions in lattice coordinates:
ion Na  -0.000000000000000  -0.000000000000000   0.254642527298703 1
ion Na   0.500000000000000   0.500000000000000   0.299568237946079 1
ion Na   0.000000000000000  -0.000000000000000   0.344016703049593 1
ion Na   0.500000000000000   0.500000000000000   0.388348476746400 1
ion Na  -0.000000000000000   0.000000000000000   0.433144408615312 1
ion Na   0.500000000000000   0.500000000000000   0.477776421055015 1
ion Na   0.000000000000000   0.000000000000000   0.522223578944985 1
ion Na   0.500000000000000   0.500000000000000   0.566855591384688 1
ion Na  -0.000000000000000   0.000000000000000   0.611651523253600 1
ion Na   0.500000000000000   0.500000000000000   0.655983296950407 1
ion Na   0.000000000000000   0.000000000000000   0.700431762053921 1
ion Na   0.500000000000000   0.500000000000000   0.745357472701297 1

# Forces in Lattice coordinates:
force Na   0.000000000000000  -0.000000000000000   0.000550192682494 1
force Na   0.000000000000000  -0.000000000000000  -0.003405161564440 1
force Na  -0.000000000000000   0.000000000000000  -0.001622875850187 1
force Na  -0.000000000000000   0.000000000000000  -0.001545930958815 1
force Na   0.000000000000000   0.000000000000000  -0.001648173036897 1
force Na   0.000000000000000  -0.000000000000000  -0.001903676296707 1
force Na   0.000000000000000   0.000000000000000   0.001903676296480 1
force Na   0.000000000000000   0.000000000000000   0.001648173036897 1
force Na  -0.000000000000000   0.000000000000000   0.001545930958360 1
force Na  -0.000000000000000   0.000000000000000   0.001622875848368 1
force Na   0.000000000000000  -0.000000000000000   0.003405161565350 1
force Na   0.000000000000000  -0.000000000000000  -0.000550192682494 1

# Energy components:
   Eewald =    -9423.4539693886636087
       EH =    -9013.8923524819128943
     Eloc =    17896.1924146392011608
      Enl =     -155.1755024279284498
   Epulay =        0.0000000299405529
      Exc =      -75.1450812948590112
       KE =      260.2945162390737437
-------------------------------------
     Etot =     -511.1799746851484656
       TS =        0.0004594593084852
-------------------------------------
        F =     -511.1804341444569673


Dumping 'X.fillings' ... done
Dumping 'X.wfns' ... done
Dumping 'X.ionpos' ... done
Dumping 'X.force' ... done
Dumping 'X.lattice' ... done
Dumping 'X.eigenvals' ... done
Dumping 'X.dos' ... done.
IonicMinimize: Iter:   3  F: -511.180434144456967  |grad|_K:  1.277e-05  alpha:  1.000e+00  linmin:  6.666e-02  t[s]:   1842.59

#--- Lowdin population analysis ---
# oxidation-state Na +0.050 +0.052 +0.032 +0.049 +0.039 +0.039 +0.039 +0.039 +0.049 +0.032 +0.052 +0.050


-------- Electronic minimization -----------
	FillingsUpdate:  mu: -0.097150178  nElectrons: 108.000000
ElecMinimize: Iter:   0  F: -511.180432313989172  |grad|_K:  2.271e-07  alpha:  1.000e+00
	FillingsUpdate:  mu: -0.097620656  nElectrons: 108.000000
	SubspaceRotationAdjust: set factor to 0.0702
ElecMinimize: Iter:   1  F: -511.180434038703766  |grad|_K:  4.837e-08  alpha:  2.802e-01  linmin:  2.377e-05  t[s]:   1871.28
	FillingsUpdate:  mu: -0.097518259  nElectrons: 108.000000
	SubspaceRotationAdjust: set factor to 0.0648
ElecMinimize: Iter:   2  F: -511.180434139591512  |grad|_K:  2.329e-08  alpha:  3.630e-01  linmin:  1.055e-03  t[s]:   1887.58
	FillingsUpdate:  mu: -0.097553378  nElectrons: 108.000000
	SubspaceRotationAdjust: set factor to 0.0697
ElecMinimize: Iter:   3  F: -511.180434170180774  |grad|_K:  1.551e-08  alpha:  4.744e-01  linmin: -4.412e-04  t[s]:   1903.96
	FillingsUpdate:  mu: -0.097574935  nElectrons: 108.000000
	SubspaceRotationAdjust: set factor to 0.0726
ElecMinimize: Iter:   4  F: -511.180434187217031  |grad|_K:  1.292e-08  alpha:  5.978e-01  linmin:  1.774e-03  t[s]:   1919.52
	FillingsUpdate:  mu: -0.097583091  nElectrons: 108.000000
	SubspaceRotationAdjust: set factor to 0.0768
ElecMinimize: Iter:   5  F: -511.180434198698663  |grad|_K:  9.989e-09  alpha:  5.926e-01  linmin: -6.119e-04  t[s]:   1936.10
	FillingsUpdate:  mu: -0.097574569  nElectrons: 108.000000
	SubspaceRotationAdjust: set factor to 0.078
ElecMinimize: Iter:   6  F: -511.180434205536699  |grad|_K:  7.634e-09  alpha:  5.530e-01  linmin: -2.334e-03  t[s]:   1952.64
	FillingsUpdate:  mu: -0.097577723  nElectrons: 108.000000

Dumping 'X.fillings' ... done
Dumping 'X.wfns' ... done
Dumping 'X.ionpos' ... done
Dumping 'X.force' ... done
Dumping 'X.eigenvals' ... done
	SubspaceRotationAdjust: set factor to 0.0817
ElecMinimize: Iter:   7  F: -511.180434209300415  |grad|_K:  6.789e-09  alpha:  5.413e-01  linmin:  2.663e-03  t[s]:   1974.50
ElecMinimize: Converged (|Delta F|<1.000000e-08 for 2 iters).
Setting wave functions to eigenvectors of Hamiltonian
Converging empty states (this may take a while): |deigs|: 1.608e-09

# Ionic positions in lattice coordinates:
ion Na  -0.000000000000000  -0.000000000000000   0.254625606411279 1
ion Na   0.500000000000000   0.500000000000000   0.299549651022363 1
ion Na   0.000000000000000  -0.000000000000000   0.343999209121625 1
ion Na   0.500000000000000   0.500000000000000   0.388335281901831 1
ion Na  -0.000000000000000  -0.000000000000000   0.433107881366784 1
ion Na   0.500000000000000   0.500000000000000   0.477775842981203 1
ion Na   0.000000000000000   0.000000000000000   0.522224157018797 1
ion Na   0.500000000000000   0.500000000000000   0.566892118633216 1
ion Na  -0.000000000000000   0.000000000000000   0.611664718098169 1
ion Na   0.500000000000000   0.500000000000000   0.656000790878375 1
ion Na   0.000000000000000   0.000000000000000   0.700450348977637 1
ion Na   0.500000000000000   0.500000000000000   0.745374393588721 1

# Forces in Lattice coordinates:
force Na  -0.000000000000000  -0.000000000000000   0.001535399492635 1
force Na   0.000000000000000  -0.000000000000000  -0.001153028307929 1
force Na  -0.000000000000000   0.000000000000000   0.000975513856982 1
force Na   0.000000000000000  -0.000000000000000   0.000305662171770 1
force Na   0.000000000000000   0.000000000000000   0.001270246706464 1
force Na   0.000000000000000  -0.000000000000000  -0.002632247313595 1
force Na   0.000000000000000   0.000000000000000   0.002632247313822 1
force Na  -0.000000000000000   0.000000000000000  -0.001270246706464 1
force Na   0.000000000000000   0.000000000000000  -0.000305662171770 1
force Na   0.000000000000000   0.000000000000000  -0.000975513856982 1
force Na  -0.000000000000000  -0.000000000000000   0.001153028307020 1
force Na   0.000000000000000  -0.000000000000000  -0.001535399491726 1

# Energy components:
   Eewald =    -9424.3890084052000020
       EH =    -9014.8259349250383821
     Eloc =    17898.0610807490229490
      Enl =     -155.1754897358926826
   Epulay =        0.0000000299405529
      Exc =      -75.1450323506465452
       KE =      260.2944103470215396
-------------------------------------
     Etot =     -511.1799742907944619
       TS =        0.0004599185059596
-------------------------------------
        F =     -511.1804342093004152

IonicMinimize: Iter:   4  F: -511.180434209300415  |grad|_K:  9.648e-06  alpha:  1.000e+00  linmin:  3.913e-01  t[s]:   1989.81
IonicMinimize: Converged (|grad|_K<1.000000e-05).

#--- Lowdin population analysis ---
# oxidation-state Na +0.050 +0.052 +0.032 +0.049 +0.039 +0.040 +0.040 +0.039 +0.049 +0.032 +0.052 +0.050


Dumping 'X.fillings' ... done
Dumping 'X.wfns' ... done
Dumping 'X.ionpos' ... done
Dumping 'X.lattice' ... done
Dumping 'X.n' ... done
Dumping 'X.eigenvals' ... done
Dumping 'X.eigStats' ... 
	eMin: -2.059342 at state 0 ( [ +0.000000 +0.000000 +0.000000 ] spin 0 )
	HOMO: -0.097692 at state 14 ( [ +0.181818 +0.454545 +0.000000 ] spin 0 )
	mu  : -0.097578
	LUMO: -0.097115 at state 14 ( [ +0.181818 +0.454545 +0.000000 ] spin 0 )
	eMax: -0.007672 at state 6 ( [ +0.090909 +0.090909 +0.000000 ] spin 0 )
	HOMO-LUMO gap: +0.000577
	Optical gap  : +0.000577 at state 14 ( [ +0.181818 +0.454545 +0.000000 ] spin 0 )
Dumping 'X.dos' ... done.
End date and time: Thu Nov  9 01:34:07 2023  (Duration: 0-0:33:11.72)
Done!
