
*************** JDFTx 1.7.0  ***************

Start date and time: Thu Nov  9 01:10:13 2023
Executable jdftx with command-line: -m -i X.in -o X.out
Running on hosts (process indices):  ac0102 (0-20)
Divided in process groups (process indices):  0 (0)  1 (1)  2 (2)  3 (3)  4 (4)  5 (5)  6 (6)  7 (7)  8 (8)  9 (9)  10 (10)  11 (11)  12 (12)  13 (13)  14 (14)  15 (15)  16 (16)  17 (17)  18 (18)  19 (19)  20 (20)
Resource initialization completed at t[s]:      0.02
Run totals: 21 processes, 21 threads, 0 GPUs


Input parsed successfully to the following command list (including defaults):

basis kpoint-dependent
cache-projectors no
coords-type Lattice
core-overlap-check vector
coulomb-interaction Slab 001
coulomb-truncation-embed 0 0 0.5
davidson-band-ratio 1.1
density-of-states Etol 1.000000e-06 Esigma 0.000000e+00 \
		Complete \
	Total \
		Occupied \
	Total
dump End State IonicPositions Lattice ElecDensity CoreDensity EigStats DOS
dump Electronic State Forces
dump Ionic State IonicPositions Forces Lattice DOS
dump-interval Electronic 8
dump-interval Ionic 4
dump-name X.$var
elec-cutoff 10
elec-eigen-algo Davidson
elec-ex-corr gga-PBE
elec-smearing Fermi 0.0095
electronic-minimize  \
	dirUpdateScheme      FletcherReeves \
	linminMethod         DirUpdateRecommended \
	nIterations          2000 \
	history              15 \
	knormThreshold       0 \
	energyDiffThreshold  1e-06 \
	nEnergyDiff          2 \
	alphaTstart          1 \
	alphaTmin            1e-10 \
	updateTestStepSize   yes \
	alphaTreduceFactor   0.1 \
	alphaTincreaseFactor 3 \
	nAlphaAdjustMax      3 \
	wolfeEnergy          0.0001 \
	wolfeGradient        0.9 \
	fdTest               no
exchange-regularization WignerSeitzTruncated
fluid None
fluid-ex-corr (null) lda-PZ
fluid-gummel-loop 10 1.000000e-05
fluid-minimize  \
	dirUpdateScheme      PolakRibiere \
	linminMethod         DirUpdateRecommended \
	nIterations          100 \
	history              15 \
	knormThreshold       0 \
	energyDiffThreshold  0 \
	nEnergyDiff          2 \
	alphaTstart          1 \
	alphaTmin            1e-10 \
	updateTestStepSize   yes \
	alphaTreduceFactor   0.1 \
	alphaTincreaseFactor 3 \
	nAlphaAdjustMax      3 \
	wolfeEnergy          0.0001 \
	wolfeGradient        0.9 \
	fdTest               no
fluid-solvent H2O 55.338 ScalarEOS \
	epsBulk 78.4 \
	pMol 0.92466 \
	epsInf 1.77 \
	Pvap 1.06736e-10 \
	sigmaBulk 4.62e-05 \
	Rvdw 2.61727 \
	Res 1.42 \
	tauNuc 343133 \
	poleEl 15 7 1
forces-output-coords Positions
initial-state X.$var
ion Na   0.000000000000000   0.000000000000000   0.201010000000000 1
ion Na   0.500000000000000   0.500000000000000   0.236180000000000 1
ion Na   0.000000000000000   0.000000000000000   0.271360000000000 1
ion Na   0.500000000000000   0.500000000000000   0.306530000000000 1
ion Na   0.000000000000000   0.000000000000000   0.341710000000000 1
ion Na   0.500000000000000   0.500000000000000   0.376890000000000 1
ion Na   0.000000000000000   0.000000000000000   0.412060000000000 1
ion Na   0.500000000000000   0.500000000000000   0.447240000000000 1
ion Na   0.000000000000000   0.000000000000000   0.482410000000000 1
ion Na   0.500000000000000   0.500000000000000   0.517590000000000 1
ion Na   0.000000000000000   0.000000000000000   0.552760000000000 1
ion Na   0.500000000000000   0.500000000000000   0.587940000000000 1
ion Na   0.000000000000000   0.000000000000000   0.623110000000000 1
ion Na   0.500000000000000   0.500000000000000   0.658290000000000 1
ion Na   0.000000000000000   0.000000000000000   0.693470000000000 1
ion Na   0.500000000000000   0.500000000000000   0.728640000000000 1
ion Na   0.000000000000000   0.000000000000000   0.763820000000000 1
ion Na   0.500000000000000   0.500000000000000   0.798990000000000 1
ion-species SG15/$ID_ONCV_PBE.upf
ion-width 0
ionic-minimize  \
	dirUpdateScheme      L-BFGS \
	linminMethod         DirUpdateRecommended \
	nIterations          0 \
	history              15 \
	knormThreshold       0.0001 \
	energyDiffThreshold  1e-06 \
	nEnergyDiff          2 \
	alphaTstart          1 \
	alphaTmin            1e-10 \
	updateTestStepSize   yes \
	alphaTreduceFactor   0.1 \
	alphaTincreaseFactor 3 \
	nAlphaAdjustMax      3 \
	wolfeEnergy          0.0001 \
	wolfeGradient        0.9 \
	fdTest               no
kpoint   0.000000000000   0.000000000000   0.000000000000  1.00000000000000
kpoint-folding 11 11 1 
latt-move-scale 1 1 1
latt-scale 1.88973 1.88973 1.88973 
lattice  \
	   4.199920000000001   -0.000000000000000   -0.000000000000000  \
	   0.000000000000000    4.199920000000001   -0.000000000000000  \
	   0.000000000000000    0.000000000000000   59.699299999999994 
lattice-minimize  \
	dirUpdateScheme      L-BFGS \
	linminMethod         DirUpdateRecommended \
	nIterations          0 \
	history              15 \
	knormThreshold       0 \
	energyDiffThreshold  1e-06 \
	nEnergyDiff          2 \
	alphaTstart          1 \
	alphaTmin            1e-10 \
	updateTestStepSize   yes \
	alphaTreduceFactor   0.1 \
	alphaTincreaseFactor 3 \
	nAlphaAdjustMax      3 \
	wolfeEnergy          0.0001 \
	wolfeGradient        0.9 \
	fdTest               no
lcao-params -1 1e-06 0.0095
pcm-variant GLSSA13
spintype no-spin
subspace-rotation-factor 1 yes
symmetries automatic
symmetry-threshold 0.0001



---------- Setting up symmetries ----------

Found 16 point-group symmetries of the bravais lattice
Found 16 space-group symmetries with basis
Applied RMS atom displacement 0 bohrs to make symmetries exact.

---------- Initializing the Grid ----------
R = 
[      7.93671            0            0  ]
[            0      7.93671            0  ]
[            0            0      112.816  ]
unit cell volume = 7106.41
G =
[   0.791661          0          0  ]
[         -0   0.791661          0  ]
[          0         -0  0.0556943  ]
Minimum fftbox size, Smin = [  24  24  324  ]
Chosen fftbox size, S = [  24  24  324  ]

---------- Exchange Correlation functional ----------
Initalized PBE GGA exchange.
Initalized PBE GGA correlation.

---------- Setting up pseudopotentials ----------
Width of ionic core gaussian charges (only for fluid interactions / plotting) set to 0

Reading pseudopotential file '/net/software/testing/software/jdftx/1.7.0-foss-2021b-mkl/share/jdftx/pseudopotentials/SG15/Na_ONCV_PBE.upf':
  'Na' pseudopotential, 'PBE' functional
  Generated using ONCVPSP code by D. R. Hamann
  Author: Martin Schlipf and Francois Gygi  Date: 150915.
  9 valence electrons, 3 orbitals, 4 projectors, 1992 radial grid points, with lMax = 1
  Transforming local potential to a uniform radial grid of dG=0.02 with 815 points.
  Transforming nonlocal projectors to a uniform radial grid of dG=0.02 with 307 points.
    2S    l: 0   occupation:  2.0   eigenvalue: -2.085640
    2P    l: 1   occupation:  6.0   eigenvalue: -1.053708
    3S    l: 0   occupation:  1.0   eigenvalue: -0.100838
  Transforming atomic orbitals to a uniform radial grid of dG=0.02 with 307 points.
  Core radius for overlap checks: 2.01 bohrs.
  Reading pulay file /net/software/testing/software/jdftx/1.7.0-foss-2021b-mkl/share/jdftx/pseudopotentials/SG15/Na_ONCV_PBE.pulay ... using dE_dnG = -1.681960e+00 computed for Ecut = 10.

Initialized 1 species with 18 total atoms.

Folded 1 k-points by 11x11x1 to 121 k-points.

---------- Setting up k-points, bands, fillings ----------
Reduced to 21 k-points under symmetry. 
Computing the number of bands and number of electrons
Calculating initial fillings.
nElectrons: 162.000000   nBands: 90   nStates: 21

----- Setting up reduced wavefunction bases (one per k-point) -----
average nbasis = 10730.025 , ideal nbasis = 10733.579

----- Initializing Supercell corresponding to k-point mesh -----
Lattice vector linear combinations in supercell:
[  11   0   0  ]
[   0  11   0  ]
[   0   0   1  ]
Supercell lattice vectors:
[  87.3039  0  0  ]
[  0  87.3039  0  ]
[  0  0  112.816  ]

---------- Setting up coulomb interaction ----------
Setting up double-sized grid for truncated Coulomb potentials:
R = 
[      7.93671            0            0  ]
[            0      7.93671            0  ]
[            0            0      225.631  ]
unit cell volume = 14212.8
G =
[   0.791661          0          0  ]
[         -0   0.791661          0  ]
[          0         -0  0.0278472  ]
Chosen fftbox size, S = [  24  24  648  ]
Integer grid location selected as the embedding center:
   Grid: [  0  0  162  ]
   Lattice: [  0  0  0.5  ]
   Cartesian: [  0  0  56.4078  ]
Constructing Wigner-Seitz cell: 6 faces (6 quadrilaterals, 0 hexagons)
Range-separation parameter for embedded mesh potentials due to point charges: 0.744427 bohrs.
Initialized slab truncation along lattice direction 001

---------- Setting up 2D ewald sum ----------
Optimum gaussian width for ewald sums = 4.734710 bohr.
Real space sums over 225 unit cells with max indices [  7  7  0  ]
Reciprocal space sums over 81 terms with max indices [  4  4  0  ]

---------- Allocating electronic variables ----------
Initializing wave functions:  linear combination of atomic orbitals
Na pseudo-atom occupations:   s ( 2 1 )  p ( 6 )
	FillingsUpdate:  mu: +0.352006338  nElectrons: 162.000000
LCAOMinimize: Iter:   0  F: -750.0609055510678900  |grad|_K:  7.370e-03  alpha:  1.000e+00
LCAOMinimize: 	Step increased F by 1.496530e+00, reducing alpha to 9.015544e-03.
	FillingsUpdate:  mu: +0.121067377  nElectrons: 162.000000
LCAOMinimize: Iter:   1  F: -750.1243557252489609  |grad|_K:  3.641e-03  alpha:  9.016e-03  linmin: -2.140e-01  cgtest:  9.769e-01  t[s]:      4.11
LCAOMinimize: Encountered beta<0, resetting CG.
	FillingsUpdate:  mu: -0.107214910  nElectrons: 162.000000
LCAOMinimize: Iter:   2  F: -750.1462718341862228  |grad|_K:  1.147e-03  alpha:  1.917e-02  linmin:  9.499e-03  cgtest: -6.248e-02  t[s]:      5.36
LCAOMinimize: 	Predicted alpha/alphaT>3.000000, increasing alphaT to 5.750507e-02.
	FillingsUpdate:  mu: -0.154257809  nElectrons: 162.000000
LCAOMinimize: Iter:   3  F: -750.1541230713252162  |grad|_K:  4.704e-04  alpha:  7.004e-02  linmin:  1.414e-03  cgtest:  1.462e-01  t[s]:      7.03
	FillingsUpdate:  mu: -0.113183037  nElectrons: 162.000000
LCAOMinimize: Iter:   4  F: -750.1555797038878381  |grad|_K:  7.871e-04  alpha:  7.603e-02  linmin:  5.180e-05  cgtest:  6.536e-03  t[s]:      8.28
	FillingsUpdate:  mu: -0.144049619  nElectrons: 162.000000
LCAOMinimize: Iter:   5  F: -750.1593731109229566  |grad|_K:  4.190e-04  alpha:  7.061e-02  linmin:  1.209e-05  cgtest:  2.948e-03  t[s]:      9.52
	FillingsUpdate:  mu: -0.181906894  nElectrons: 162.000000
LCAOMinimize: Iter:   6  F: -750.1621765010047511  |grad|_K:  4.604e-04  alpha:  1.837e-01  linmin: -8.349e-06  cgtest: -1.160e-02  t[s]:     10.76
	FillingsUpdate:  mu: -0.151756369  nElectrons: 162.000000
LCAOMinimize: Iter:   7  F: -750.1627537531254575  |grad|_K:  3.758e-04  alpha:  3.106e-02  linmin: -1.164e-04  cgtest: -1.599e-04  t[s]:     11.99
	FillingsUpdate:  mu: -0.142561647  nElectrons: 162.000000
LCAOMinimize: Iter:   8  F: -750.1636822386931271  |grad|_K:  6.941e-05  alpha:  7.525e-02  linmin:  3.618e-04  cgtest: -1.846e-01  t[s]:     13.24
	FillingsUpdate:  mu: -0.149495267  nElectrons: 162.000000
LCAOMinimize: Iter:   9  F: -750.1637241317474718  |grad|_K:  1.119e-04  alpha:  1.009e-01  linmin:  1.066e-05  cgtest:  6.082e-03  t[s]:     14.49
	FillingsUpdate:  mu: -0.145359704  nElectrons: 162.000000
LCAOMinimize: Iter:  10  F: -750.1637592152352454  |grad|_K:  4.395e-05  alpha:  3.216e-02  linmin: -7.224e-05  cgtest: -8.650e-03  t[s]:     15.74
LCAOMinimize: 	Predicted alpha/alphaT>3.000000, increasing alphaT to 9.649280e-02.
	FillingsUpdate:  mu: -0.142788313  nElectrons: 162.000000
LCAOMinimize: Iter:  11  F: -750.1637776458719600  |grad|_K:  2.164e-05  alpha:  1.096e-01  linmin:  1.794e-05  cgtest: -7.936e-03  t[s]:     17.39
	FillingsUpdate:  mu: -0.143925464  nElectrons: 162.000000
LCAOMinimize: Iter:  12  F: -750.1637784794685331  |grad|_K:  1.072e-05  alpha:  2.046e-02  linmin: -1.815e-05  cgtest:  1.382e-03  t[s]:     18.63
LCAOMinimize: 	Predicted alpha/alphaT>3.000000, increasing alphaT to 6.137131e-02.
	FillingsUpdate:  mu: -0.144640174  nElectrons: 162.000000
LCAOMinimize: Iter:  13  F: -750.1637798366484731  |grad|_K:  9.132e-06  alpha:  1.364e-01  linmin:  1.750e-04  cgtest: -5.801e-03  t[s]:     20.29
	FillingsUpdate:  mu: -0.143712299  nElectrons: 162.000000
LCAOMinimize: Iter:  14  F: -750.1637806177055836  |grad|_K:  1.676e-05  alpha:  1.082e-01  linmin:  2.541e-06  cgtest:  3.966e-03  t[s]:     21.53
	FillingsUpdate:  mu: -0.144260169  nElectrons: 162.000000
LCAOMinimize: Iter:  15  F: -750.1637815428530303  |grad|_K:  5.204e-06  alpha:  3.793e-02  linmin: -5.365e-06  cgtest: -1.651e-02  t[s]:     22.77
LCAOMinimize: Converged (|Delta F|<1.000000e-06 for 2 iters).


---- Citations for features of the code used in this run ----

   Software package:
      R. Sundararaman, K. Letchworth-Weaver, K.A. Schwarz, D. Gunceler, Y. Ozhabes and T.A. Arias, 'JDFTx: software for joint density-functional theory', SoftwareX 6, 278 (2017)

   gga-PBE exchange-correlation functional:
      J.P. Perdew, K. Burke and M. Ernzerhof, Phys. Rev. Lett. 77, 3865 (1996)

   Pseudopotentials:
      M Schlipf and F Gygi, Comput. Phys. Commun. 196, 36 (2015)

   Truncated Coulomb potentials:
      R. Sundararaman and T.A. Arias, Phys. Rev. B 87, 165122 (2013)

   Total energy minimization with Auxiliary Hamiltonian:
      C. Freysoldt, S. Boeck, and J. Neugebauer, Phys. Rev. B 79, 241103(R) (2009)

   Linear-tetrahedron sampling for density of states:
      G. Lehmann and M. Taut, Phys. status solidi (b) 54, 469 (1972)

This list may not be complete. Please suggest additional citations or
report any other bugs at https://github.com/shankar1729/jdftx/issues

Initialization completed successfully at t[s]:     22.93


-------- Electronic minimization -----------
	FillingsUpdate:  mu: -0.144260169  nElectrons: 162.000000
ElecMinimize: Iter:   0  F: -750.163781542838592  |grad|_K:  4.251e-04  alpha:  1.000e+00
	FillingsUpdate:  mu: -0.126675065  nElectrons: 162.000000
	SubspaceRotationAdjust: set factor to 1
ElecMinimize: Iter:   1  F: -751.235708085892043  |grad|_K:  1.083e-04  alpha:  2.921e-01  linmin:  2.481e-03  t[s]:     25.97
	FillingsUpdate:  mu: -0.247428184  nElectrons: 162.000000
	SubspaceRotationAdjust: set factor to 0.548
ElecMinimize: Iter:   2  F: -751.312253077029482  |grad|_K:  1.497e-04  alpha:  3.220e-01  linmin:  3.251e-05  t[s]:     27.88
	FillingsUpdate:  mu: -0.133727202  nElectrons: 162.000000
	SubspaceRotationAdjust: set factor to 0.338
ElecMinimize: Iter:   3  F: -751.320967634383919  |grad|_K:  4.575e-05  alpha:  1.857e-02  linmin: -3.552e-04  t[s]:     29.72
ElecMinimize: 	Predicted alpha/alphaT>3.000000, increasing alphaT to 5.571233e-02.
ElecMinimize: 	Predicted alpha/alphaT>3.000000, increasing alphaT to 1.671370e-01.
	FillingsUpdate:  mu: -0.029611877  nElectrons: 162.000000
	SubspaceRotationAdjust: set factor to 0.193
ElecMinimize: Iter:   4  F: -751.332988458491741  |grad|_K:  8.532e-05  alpha:  2.737e-01  linmin:  1.863e-05  t[s]:     32.68
	FillingsUpdate:  mu: -0.098300300  nElectrons: 162.000000
	SubspaceRotationAdjust: set factor to 0.332
ElecMinimize: Iter:   5  F: -751.345617424407124  |grad|_K:  4.195e-05  alpha:  8.437e-02  linmin: -8.244e-05  t[s]:     34.52
	FillingsUpdate:  mu: -0.195089833  nElectrons: 162.000000
	SubspaceRotationAdjust: set factor to 0.213
ElecMinimize: Iter:   6  F: -751.353200615174615  |grad|_K:  7.129e-05  alpha:  2.107e-01  linmin:  1.235e-04  t[s]:     36.34
	FillingsUpdate:  mu: -0.148583914  nElectrons: 162.000000

Dumping 'X.fillings' ... done
Dumping 'X.wfns' ... done
Dumping 'X.force' ... done
Dumping 'X.eigenvals' ... done
	SubspaceRotationAdjust: set factor to 0.337
ElecMinimize: Iter:   7  F: -751.368864069468145  |grad|_K:  3.965e-05  alpha:  1.527e-01  linmin:  8.229e-06  t[s]:     38.40
	FillingsUpdate:  mu: -0.063788613  nElectrons: 162.000000
	SubspaceRotationAdjust: set factor to 0.21
ElecMinimize: Iter:   8  F: -751.376116487700187  |grad|_K:  6.273e-05  alpha:  2.278e-01  linmin:  8.892e-05  t[s]:     40.29
	FillingsUpdate:  mu: -0.117909087  nElectrons: 162.000000
	SubspaceRotationAdjust: set factor to 0.199
ElecMinimize: Iter:   9  F: -751.385249687015403  |grad|_K:  2.757e-05  alpha:  1.138e-01  linmin: -8.632e-05  t[s]:     42.13
ElecMinimize: 	Predicted alpha/alphaT>3.000000, increasing alphaT to 3.415245e-01.
	FillingsUpdate:  mu: -0.148338702  nElectrons: 162.000000
	SubspaceRotationAdjust: set factor to 0.146
ElecMinimize: Iter:  10  F: -751.390852731295467  |grad|_K:  3.058e-05  alpha:  3.597e-01  linmin:  1.477e-04  t[s]:     44.52
	FillingsUpdate:  mu: -0.099632912  nElectrons: 162.000000
	SubspaceRotationAdjust: set factor to 0.0979
	SubspaceRotationAdjust: resetting CG because factor has changed by 0.0979372
ElecMinimize: 	State modified externally: resetting search direction.
ElecMinimize: Iter:  11  F: -751.393129675123305  |grad|_K:  1.801e-05  alpha:  1.173e-01
	FillingsUpdate:  mu: -0.122800548  nElectrons: 162.000000
	SubspaceRotationAdjust: set factor to 0.213
ElecMinimize: Iter:  12  F: -751.395191973100054  |grad|_K:  1.270e-05  alpha:  3.123e-01  linmin:  2.417e-05  t[s]:     49.19
	FillingsUpdate:  mu: -0.100506414  nElectrons: 162.000000
	SubspaceRotationAdjust: set factor to 0.183
ElecMinimize: Iter:  13  F: -751.396963230780102  |grad|_K:  1.509e-05  alpha:  5.410e-01  linmin:  4.217e-05  t[s]:     51.02
	FillingsUpdate:  mu: -0.131590730  nElectrons: 162.000000
	SubspaceRotationAdjust: set factor to 0.115
ElecMinimize: Iter:  14  F: -751.397848975856277  |grad|_K:  1.408e-05  alpha:  1.887e-01  linmin: -7.434e-05  t[s]:     52.83
	FillingsUpdate:  mu: -0.108791542  nElectrons: 162.000000

Dumping 'X.fillings' ... done
Dumping 'X.wfns' ... done
Dumping 'X.force' ... done
Dumping 'X.eigenvals' ... done
	SubspaceRotationAdjust: set factor to 0.0851
ElecMinimize: Iter:  15  F: -751.399309672321465  |grad|_K:  1.027e-05  alpha:  3.591e-01  linmin:  3.506e-05  t[s]:     55.12
	FillingsUpdate:  mu: -0.116168064  nElectrons: 162.000000
	SubspaceRotationAdjust: set factor to 0.0818
ElecMinimize: Iter:  16  F: -751.400536552201743  |grad|_K:  8.728e-06  alpha:  5.750e-01  linmin:  8.574e-06  t[s]:     56.93
	FillingsUpdate:  mu: -0.111718802  nElectrons: 162.000000
	SubspaceRotationAdjust: set factor to 0.0816
ElecMinimize: Iter:  17  F: -751.401408145142454  |grad|_K:  8.175e-06  alpha:  5.629e-01  linmin:  3.199e-06  t[s]:     58.77
	FillingsUpdate:  mu: -0.120040741  nElectrons: 162.000000
	SubspaceRotationAdjust: set factor to 0.0796
ElecMinimize: Iter:  18  F: -751.402169326410331  |grad|_K:  7.338e-06  alpha:  5.598e-01  linmin:  7.995e-06  t[s]:     60.59
	FillingsUpdate:  mu: -0.113741577  nElectrons: 162.000000
	SubspaceRotationAdjust: set factor to 0.075
ElecMinimize: Iter:  19  F: -751.402718280644535  |grad|_K:  5.554e-06  alpha:  5.014e-01  linmin:  8.350e-06  t[s]:     62.41
	FillingsUpdate:  mu: -0.120826499  nElectrons: 162.000000
	SubspaceRotationAdjust: set factor to 0.0682
ElecMinimize: Iter:  20  F: -751.403067295491610  |grad|_K:  4.976e-06  alpha:  5.568e-01  linmin:  1.610e-05  t[s]:     64.22
	FillingsUpdate:  mu: -0.112280293  nElectrons: 162.000000
	SubspaceRotationAdjust: set factor to 0.0608
ElecMinimize: Iter:  21  F: -751.403329298002518  |grad|_K:  4.399e-06  alpha:  5.210e-01  linmin:  1.259e-05  t[s]:     66.07
	FillingsUpdate:  mu: -0.115181292  nElectrons: 162.000000
	SubspaceRotationAdjust: set factor to 0.0629
ElecMinimize: Iter:  22  F: -751.403501676487053  |grad|_K:  2.659e-06  alpha:  4.380e-01  linmin:  6.694e-06  t[s]:     67.95
	FillingsUpdate:  mu: -0.115813940  nElectrons: 162.000000

Dumping 'X.fillings' ... done
Dumping 'X.wfns' ... done
Dumping 'X.force' ... done
Dumping 'X.eigenvals' ... done
	SubspaceRotationAdjust: set factor to 0.0659
ElecMinimize: Iter:  23  F: -751.403585035707238  |grad|_K:  2.593e-06  alpha:  5.793e-01  linmin:  8.025e-06  t[s]:     70.06
	FillingsUpdate:  mu: -0.114332461  nElectrons: 162.000000
	SubspaceRotationAdjust: set factor to 0.0675
ElecMinimize: Iter:  24  F: -751.403667428709014  |grad|_K:  2.539e-06  alpha:  6.020e-01  linmin:  2.360e-05  t[s]:     71.91
	FillingsUpdate:  mu: -0.115710315  nElectrons: 162.000000
	SubspaceRotationAdjust: set factor to 0.0693
ElecMinimize: Iter:  25  F: -751.403747008501682  |grad|_K:  2.496e-06  alpha:  6.068e-01  linmin:  2.890e-05  t[s]:     73.76
	FillingsUpdate:  mu: -0.114446097  nElectrons: 162.000000
	SubspaceRotationAdjust: set factor to 0.0714
ElecMinimize: Iter:  26  F: -751.403815706709111  |grad|_K:  2.088e-06  alpha:  5.419e-01  linmin:  2.242e-05  t[s]:     75.65
	FillingsUpdate:  mu: -0.115850966  nElectrons: 162.000000
	SubspaceRotationAdjust: set factor to 0.0721
ElecMinimize: Iter:  27  F: -751.403869295358504  |grad|_K:  2.110e-06  alpha:  6.046e-01  linmin:  2.335e-05  t[s]:     77.51
	FillingsUpdate:  mu: -0.114261329  nElectrons: 162.000000
	SubspaceRotationAdjust: set factor to 0.0719
ElecMinimize: Iter:  28  F: -751.403921302504727  |grad|_K:  1.902e-06  alpha:  5.749e-01  linmin:  1.954e-05  t[s]:     79.35
	FillingsUpdate:  mu: -0.115073295  nElectrons: 162.000000
	SubspaceRotationAdjust: set factor to 0.0748
ElecMinimize: Iter:  29  F: -751.403957466015186  |grad|_K:  1.430e-06  alpha:  4.917e-01  linmin:  9.768e-06  t[s]:     81.22
	FillingsUpdate:  mu: -0.115684032  nElectrons: 162.000000
	SubspaceRotationAdjust: set factor to 0.0774
ElecMinimize: Iter:  30  F: -751.403979497943965  |grad|_K:  1.232e-06  alpha:  5.295e-01  linmin:  6.405e-06  t[s]:     83.10
	FillingsUpdate:  mu: -0.114844114  nElectrons: 162.000000

Dumping 'X.fillings' ... done
Dumping 'X.wfns' ... done
Dumping 'X.force' ... done
Dumping 'X.eigenvals' ... done
	SubspaceRotationAdjust: set factor to 0.0773
ElecMinimize: Iter:  31  F: -751.403995915062978  |grad|_K:  1.088e-06  alpha:  5.314e-01  linmin:  4.576e-06  t[s]:     85.20
	FillingsUpdate:  mu: -0.115893016  nElectrons: 162.000000
	SubspaceRotationAdjust: set factor to 0.076
ElecMinimize: Iter:  32  F: -751.404007679746201  |grad|_K:  8.828e-07  alpha:  4.883e-01  linmin:  3.296e-06  t[s]:     87.05
	FillingsUpdate:  mu: -0.114882616  nElectrons: 162.000000
	SubspaceRotationAdjust: set factor to 0.0737
ElecMinimize: Iter:  33  F: -751.404016500808439  |grad|_K:  8.845e-07  alpha:  5.561e-01  linmin:  1.565e-06  t[s]:     88.92
	FillingsUpdate:  mu: -0.116032198  nElectrons: 162.000000
	SubspaceRotationAdjust: set factor to 0.0686
ElecMinimize: Iter:  34  F: -751.404024938773887  |grad|_K:  8.140e-07  alpha:  5.298e-01  linmin:  2.538e-06  t[s]:     90.77
	FillingsUpdate:  mu: -0.114890566  nElectrons: 162.000000
	SubspaceRotationAdjust: set factor to 0.0642
ElecMinimize: Iter:  35  F: -751.404032506453859  |grad|_K:  7.629e-07  alpha:  5.611e-01  linmin:  3.075e-07  t[s]:     92.67
	FillingsUpdate:  mu: -0.115367318  nElectrons: 162.000000
	SubspaceRotationAdjust: set factor to 0.0657
ElecMinimize: Iter:  36  F: -751.404038762597793  |grad|_K:  6.308e-07  alpha:  5.278e-01  linmin:  2.961e-06  t[s]:     94.53
	FillingsUpdate:  mu: -0.115683732  nElectrons: 162.000000
	SubspaceRotationAdjust: set factor to 0.0676
ElecMinimize: Iter:  37  F: -751.404043094174654  |grad|_K:  6.027e-07  alpha:  5.349e-01  linmin:  5.625e-08  t[s]:     96.38
	FillingsUpdate:  mu: -0.115120538  nElectrons: 162.000000
	SubspaceRotationAdjust: set factor to 0.066
ElecMinimize: Iter:  38  F: -751.404047345256572  |grad|_K:  5.717e-07  alpha:  5.749e-01  linmin:  2.815e-06  t[s]:     98.24
	FillingsUpdate:  mu: -0.115629161  nElectrons: 162.000000

Dumping 'X.fillings' ... done
Dumping 'X.wfns' ... done
Dumping 'X.force' ... done
Dumping 'X.eigenvals' ... done
	SubspaceRotationAdjust: set factor to 0.065
ElecMinimize: Iter:  39  F: -751.404050804125404  |grad|_K:  4.912e-07  alpha:  5.200e-01  linmin:  2.511e-07  t[s]:    100.36
	FillingsUpdate:  mu: -0.115303016  nElectrons: 162.000000
	SubspaceRotationAdjust: set factor to 0.0667
ElecMinimize: Iter:  40  F: -751.404053369395569  |grad|_K:  4.487e-07  alpha:  5.221e-01  linmin: -2.409e-07  t[s]:    102.23
	FillingsUpdate:  mu: -0.115226914  nElectrons: 162.000000
	SubspaceRotationAdjust: set factor to 0.0691
ElecMinimize: Iter:  41  F: -751.404055847719292  |grad|_K:  4.502e-07  alpha:  6.050e-01  linmin:  8.806e-06  t[s]:    104.08
	FillingsUpdate:  mu: -0.115449127  nElectrons: 162.000000
	SubspaceRotationAdjust: set factor to 0.0705
ElecMinimize: Iter:  42  F: -751.404058411670690  |grad|_K:  4.518e-07  alpha:  6.218e-01  linmin:  4.176e-06  t[s]:    105.95
	FillingsUpdate:  mu: -0.115021417  nElectrons: 162.000000
	SubspaceRotationAdjust: set factor to 0.0696
ElecMinimize: Iter:  43  F: -751.404060679349868  |grad|_K:  4.349e-07  alpha:  5.461e-01  linmin:  1.257e-06  t[s]:    107.80
	FillingsUpdate:  mu: -0.115484626  nElectrons: 162.000000
	SubspaceRotationAdjust: set factor to 0.0677
ElecMinimize: Iter:  44  F: -751.404062900629810  |grad|_K:  4.182e-07  alpha:  5.766e-01  linmin:  9.763e-06  t[s]:    109.68
	FillingsUpdate:  mu: -0.115138705  nElectrons: 162.000000
	SubspaceRotationAdjust: set factor to 0.0675
ElecMinimize: Iter:  45  F: -751.404064978110341  |grad|_K:  4.039e-07  alpha:  5.839e-01  linmin:  5.118e-08  t[s]:    111.57
	FillingsUpdate:  mu: -0.115234597  nElectrons: 162.000000
	SubspaceRotationAdjust: set factor to 0.0705
ElecMinimize: Iter:  46  F: -751.404066717364572  |grad|_K:  3.456e-07  alpha:  5.234e-01  linmin:  1.607e-06  t[s]:    113.42
	FillingsUpdate:  mu: -0.115443945  nElectrons: 162.000000

Dumping 'X.fillings' ... done
Dumping 'X.wfns' ... done
Dumping 'X.force' ... done
Dumping 'X.eigenvals' ... done
	SubspaceRotationAdjust: set factor to 0.0722
ElecMinimize: Iter:  47  F: -751.404067976427541  |grad|_K:  3.168e-07  alpha:  5.179e-01  linmin: -2.790e-07  t[s]:    115.52
	FillingsUpdate:  mu: -0.115121851  nElectrons: 162.000000
	SubspaceRotationAdjust: set factor to 0.0709
ElecMinimize: Iter:  48  F: -751.404069150676946  |grad|_K:  3.028e-07  alpha:  5.741e-01  linmin: -2.506e-06  t[s]:    117.40
	FillingsUpdate:  mu: -0.115487982  nElectrons: 162.000000
	SubspaceRotationAdjust: set factor to 0.0692
ElecMinimize: Iter:  49  F: -751.404070146466665  |grad|_K:  2.830e-07  alpha:  5.331e-01  linmin: -1.129e-06  t[s]:    119.25
	FillingsUpdate:  mu: -0.115296505  nElectrons: 162.000000
	SubspaceRotationAdjust: set factor to 0.0699
ElecMinimize: Iter:  50  F: -751.404071058572185  |grad|_K:  2.701e-07  alpha:  5.593e-01  linmin: -3.499e-06  t[s]:    121.05
ElecMinimize: Converged (|Delta F|<1.000000e-06 for 2 iters).
Setting wave functions to eigenvectors of Hamiltonian

# Ionic positions in lattice coordinates:
ion Na   0.000000000000000   0.000000000000000   0.201010000000000 1
ion Na   0.500000000000000   0.500000000000000   0.236180000000000 1
ion Na   0.000000000000000   0.000000000000000   0.271360000000000 1
ion Na   0.500000000000000   0.500000000000000   0.306530000000000 1
ion Na   0.000000000000000   0.000000000000000   0.341710000000000 1
ion Na   0.500000000000000   0.500000000000000   0.376890000000000 1
ion Na   0.000000000000000   0.000000000000000   0.412060000000000 1
ion Na   0.500000000000000   0.500000000000000   0.447240000000000 1
ion Na   0.000000000000000   0.000000000000000   0.482410000000000 1
ion Na   0.500000000000000   0.500000000000000   0.517590000000000 1
ion Na   0.000000000000000   0.000000000000000   0.552760000000000 1
ion Na   0.500000000000000   0.500000000000000   0.587940000000000 1
ion Na   0.000000000000000   0.000000000000000   0.623110000000000 1
ion Na   0.500000000000000   0.500000000000000   0.658290000000000 1
ion Na   0.000000000000000   0.000000000000000   0.693470000000000 1
ion Na   0.500000000000000   0.500000000000000   0.728640000000000 1
ion Na   0.000000000000000   0.000000000000000   0.763820000000000 1
ion Na   0.500000000000000   0.500000000000000   0.798990000000000 1

# Forces in Lattice coordinates:
force Na  -0.000000000000000  -0.000000000000000   0.088581337421352 1
force Na  -0.000000000000000   0.000000000000000   0.017263586818252 1
force Na  -0.000000000000000  -0.000000000000000   0.018861279813447 1
force Na   0.000000000000000   0.000000000000000   0.049052587605568 1
force Na   0.000000000000000  -0.000000000000000   0.013906902891103 1
force Na  -0.000000000000000  -0.000000000000000   0.047924179116441 1
force Na  -0.000000000000000   0.000000000000000   0.028517306901243 1
force Na   0.000000000000000  -0.000000000000000   0.006925116905748 1
force Na   0.000000000000000   0.000000000000000   0.028387118625379 1
force Na   0.000000000000000  -0.000000000000000  -0.028387118625493 1
force Na   0.000000000000000  -0.000000000000000  -0.006925116905748 1
force Na  -0.000000000000000   0.000000000000000  -0.028517306902152 1
force Na  -0.000000000000000   0.000000000000000  -0.047924179116441 1
force Na  -0.000000000000000  -0.000000000000000  -0.013906902891103 1
force Na   0.000000000000000  -0.000000000000000  -0.049052587603749 1
force Na   0.000000000000000  -0.000000000000000  -0.018861279811628 1
force Na  -0.000000000000000  -0.000000000000000  -0.017263586818252 1
force Na  -0.000000000000000  -0.000000000000000  -0.088581337421354 1

# Energy components:
   Eewald =   -31449.3924451142411272
       EH =   -30867.3284763383271638
     Eloc =    61522.9404184424565756
      Enl =     -207.8730028950213296
   Epulay =       -0.0151407002675386
      Exc =     -107.6062752998559375
       KE =      357.9359733503930556
-------------------------------------
     Etot =     -751.3389485548597122
       TS =        0.0651225037124209
-------------------------------------
        F =     -751.4040710585721854

IonicMinimize: Iter:   0  F: -751.404071058572185  |grad|_K:  2.094e-04  t[s]:    121.37
IonicMinimize: None of the convergence criteria satisfied after 0 iterations.

#--- Lowdin population analysis ---
# oxidation-state Na +0.071 +0.046 +0.038 +0.049 +0.045 +0.046 +0.047 +0.047 +0.047 +0.047 +0.047 +0.047 +0.046 +0.045 +0.049 +0.038 +0.046 +0.071


Dumping 'X.fillings' ... done
Dumping 'X.wfns' ... done
Dumping 'X.ionpos' ... done
Dumping 'X.lattice' ... done
Dumping 'X.n' ... done
Dumping 'X.eigenvals' ... done
Dumping 'X.eigStats' ... 
	eMin: -2.309626 at state 1 ( [ +0.000000 +0.090909 +0.000000 ] spin 0 )
	HOMO: -0.115439 at state 0 ( [ +0.000000 +0.000000 +0.000000 ] spin 0 )
	mu  : -0.115297
	LUMO: -0.115273 at state 17 ( [ +0.272727 +0.454545 +0.000000 ] spin 0 )
	eMax: -0.007116 at state 11 ( [ +0.181818 +0.181818 +0.000000 ] spin 0 )
	HOMO-LUMO gap: +0.000166
	Optical gap  : +0.001108 at state 17 ( [ +0.272727 +0.454545 +0.000000 ] spin 0 )
Dumping 'X.dos' ... done.
End date and time: Thu Nov  9 01:12:14 2023  (Duration: 0-0:02:01.88)
Done!

*************** JDFTx 1.7.0  ***************

Start date and time: Thu Nov  9 01:12:17 2023
Executable jdftx with command-line: -m -i X.in -o X.out
Running on hosts (process indices):  ac0102 (0-20)
Divided in process groups (process indices):  0 (0)  1 (1)  2 (2)  3 (3)  4 (4)  5 (5)  6 (6)  7 (7)  8 (8)  9 (9)  10 (10)  11 (11)  12 (12)  13 (13)  14 (14)  15 (15)  16 (16)  17 (17)  18 (18)  19 (19)  20 (20)
Resource initialization completed at t[s]:      0.01
Run totals: 21 processes, 21 threads, 0 GPUs


Input parsed successfully to the following command list (including defaults):

basis kpoint-dependent
cache-projectors no
coords-type Lattice
core-overlap-check vector
coulomb-interaction Slab 001
coulomb-truncation-embed 0 0 0.5
davidson-band-ratio 1.1
density-of-states Etol 1.000000e-06 Esigma 0.000000e+00 \
		Complete \
	Total \
		Occupied \
	Total
dump End State IonicPositions Lattice ElecDensity CoreDensity EigStats DOS
dump Electronic State Forces
dump Ionic State IonicPositions Forces Lattice DOS
dump-interval Electronic 8
dump-interval Ionic 4
dump-name X.$var
elec-cutoff 20
elec-eigen-algo Davidson
elec-ex-corr gga-PBE
elec-smearing Fermi 0.0095
electronic-minimize  \
	dirUpdateScheme      FletcherReeves \
	linminMethod         DirUpdateRecommended \
	nIterations          2000 \
	history              15 \
	knormThreshold       0 \
	energyDiffThreshold  1e-07 \
	nEnergyDiff          2 \
	alphaTstart          1 \
	alphaTmin            1e-10 \
	updateTestStepSize   yes \
	alphaTreduceFactor   0.1 \
	alphaTincreaseFactor 3 \
	nAlphaAdjustMax      3 \
	wolfeEnergy          0.0001 \
	wolfeGradient        0.9 \
	fdTest               no
exchange-regularization WignerSeitzTruncated
fluid None
fluid-ex-corr (null) lda-PZ
fluid-gummel-loop 10 1.000000e-05
fluid-minimize  \
	dirUpdateScheme      PolakRibiere \
	linminMethod         DirUpdateRecommended \
	nIterations          100 \
	history              15 \
	knormThreshold       0 \
	energyDiffThreshold  0 \
	nEnergyDiff          2 \
	alphaTstart          1 \
	alphaTmin            1e-10 \
	updateTestStepSize   yes \
	alphaTreduceFactor   0.1 \
	alphaTincreaseFactor 3 \
	nAlphaAdjustMax      3 \
	wolfeEnergy          0.0001 \
	wolfeGradient        0.9 \
	fdTest               no
fluid-solvent H2O 55.338 ScalarEOS \
	epsBulk 78.4 \
	pMol 0.92466 \
	epsInf 1.77 \
	Pvap 1.06736e-10 \
	sigmaBulk 4.62e-05 \
	Rvdw 2.61727 \
	Res 1.42 \
	tauNuc 343133 \
	poleEl 15 7 1
forces-output-coords Positions
ion Na   0.000000000000000   0.000000000000000   0.201010000000000 1
ion Na   0.500000000000000   0.500000000000000   0.236180000000000 1
ion Na   0.000000000000000   0.000000000000000   0.271360000000000 1
ion Na   0.500000000000000   0.500000000000000   0.306530000000000 1
ion Na   0.000000000000000   0.000000000000000   0.341710000000000 1
ion Na   0.500000000000000   0.500000000000000   0.376890000000000 1
ion Na   0.000000000000000   0.000000000000000   0.412060000000000 1
ion Na   0.500000000000000   0.500000000000000   0.447240000000000 1
ion Na   0.000000000000000   0.000000000000000   0.482410000000000 1
ion Na   0.500000000000000   0.500000000000000   0.517590000000000 1
ion Na   0.000000000000000   0.000000000000000   0.552760000000000 1
ion Na   0.500000000000000   0.500000000000000   0.587940000000000 1
ion Na   0.000000000000000   0.000000000000000   0.623110000000000 1
ion Na   0.500000000000000   0.500000000000000   0.658290000000000 1
ion Na   0.000000000000000   0.000000000000000   0.693470000000000 1
ion Na   0.500000000000000   0.500000000000000   0.728640000000000 1
ion Na   0.000000000000000   0.000000000000000   0.763820000000000 1
ion Na   0.500000000000000   0.500000000000000   0.798990000000000 1
ion-species SG15/$ID_ONCV_PBE.upf
ion-width 0
ionic-minimize  \
	dirUpdateScheme      L-BFGS \
	linminMethod         DirUpdateRecommended \
	nIterations          0 \
	history              15 \
	knormThreshold       0.0001 \
	energyDiffThreshold  1e-06 \
	nEnergyDiff          2 \
	alphaTstart          1 \
	alphaTmin            1e-10 \
	updateTestStepSize   yes \
	alphaTreduceFactor   0.1 \
	alphaTincreaseFactor 3 \
	nAlphaAdjustMax      3 \
	wolfeEnergy          0.0001 \
	wolfeGradient        0.9 \
	fdTest               no
kpoint   0.000000000000   0.000000000000   0.000000000000  1.00000000000000
kpoint-folding 11 11 1 
latt-move-scale 1 1 1
latt-scale 1 1 1 
lattice  \
	   7.936714821600003   -0.000000000000000   -0.000000000000000  \
	   0.000000000000000    7.936714821600003   -0.000000000000000  \
	   0.000000000000000    0.000000000000000  112.815558189000001 
lattice-minimize  \
	dirUpdateScheme      L-BFGS \
	linminMethod         DirUpdateRecommended \
	nIterations          0 \
	history              15 \
	knormThreshold       0 \
	energyDiffThreshold  1e-06 \
	nEnergyDiff          2 \
	alphaTstart          1 \
	alphaTmin            1e-10 \
	updateTestStepSize   yes \
	alphaTreduceFactor   0.1 \
	alphaTincreaseFactor 3 \
	nAlphaAdjustMax      3 \
	wolfeEnergy          0.0001 \
	wolfeGradient        0.9 \
	fdTest               no
lcao-params -1 1e-06 0.0095
pcm-variant GLSSA13
spintype no-spin
subspace-rotation-factor 1 yes
symmetries automatic
symmetry-threshold 0.0001
wavefunction read X.wfns 90 10.000000



---------- Setting up symmetries ----------

Found 16 point-group symmetries of the bravais lattice
Found 16 space-group symmetries with basis
Applied RMS atom displacement 0 bohrs to make symmetries exact.

---------- Initializing the Grid ----------
R = 
[      7.93671            0            0  ]
[            0      7.93671            0  ]
[            0            0      112.816  ]
unit cell volume = 7106.41
G =
[   0.791661          0          0  ]
[         -0   0.791661          0  ]
[          0         -0  0.0556943  ]
Minimum fftbox size, Smin = [  32  32  456  ]
Chosen fftbox size, S = [  32  32  480  ]

---------- Exchange Correlation functional ----------
Initalized PBE GGA exchange.
Initalized PBE GGA correlation.

---------- Setting up pseudopotentials ----------
Width of ionic core gaussian charges (only for fluid interactions / plotting) set to 0

Reading pseudopotential file '/net/software/testing/software/jdftx/1.7.0-foss-2021b-mkl/share/jdftx/pseudopotentials/SG15/Na_ONCV_PBE.upf':
  'Na' pseudopotential, 'PBE' functional
  Generated using ONCVPSP code by D. R. Hamann
  Author: Martin Schlipf and Francois Gygi  Date: 150915.
  9 valence electrons, 3 orbitals, 4 projectors, 1992 radial grid points, with lMax = 1
  Transforming local potential to a uniform radial grid of dG=0.02 with 1123 points.
  Transforming nonlocal projectors to a uniform radial grid of dG=0.02 with 432 points.
    2S    l: 0   occupation:  2.0   eigenvalue: -2.085640
    2P    l: 1   occupation:  6.0   eigenvalue: -1.053708
    3S    l: 0   occupation:  1.0   eigenvalue: -0.100838
  Transforming atomic orbitals to a uniform radial grid of dG=0.02 with 432 points.
  Core radius for overlap checks: 2.01 bohrs.
  Reading pulay file /net/software/testing/software/jdftx/1.7.0-foss-2021b-mkl/share/jdftx/pseudopotentials/SG15/Na_ONCV_PBE.pulay ... using dE_dnG = -2.946487e-03 computed for Ecut = 20.

Initialized 1 species with 18 total atoms.

Folded 1 k-points by 11x11x1 to 121 k-points.

---------- Setting up k-points, bands, fillings ----------
Reduced to 21 k-points under symmetry. 
Computing the number of bands and number of electrons
Calculating initial fillings.
nElectrons: 162.000000   nBands: 90   nStates: 21

----- Setting up reduced wavefunction bases (one per k-point) -----
average nbasis = 30360.455 , ideal nbasis = 30359.145

----- Initializing Supercell corresponding to k-point mesh -----
Lattice vector linear combinations in supercell:
[  11   0   0  ]
[   0  11   0  ]
[   0   0   1  ]
Supercell lattice vectors:
[  87.3039  0  0  ]
[  0  87.3039  0  ]
[  0  0  112.816  ]

---------- Setting up coulomb interaction ----------
Setting up double-sized grid for truncated Coulomb potentials:
R = 
[      7.93671            0            0  ]
[            0      7.93671            0  ]
[            0            0      225.631  ]
unit cell volume = 14212.8
G =
[   0.791661          0          0  ]
[         -0   0.791661          0  ]
[          0         -0  0.0278472  ]
Chosen fftbox size, S = [  32  32  960  ]
Integer grid location selected as the embedding center:
   Grid: [  0  0  240  ]
   Lattice: [  0  0  0.5  ]
   Cartesian: [  0  0  56.4078  ]
Constructing Wigner-Seitz cell: 6 faces (6 quadrilaterals, 0 hexagons)
Range-separation parameter for embedded mesh potentials due to point charges: 0.628283 bohrs.
Initialized slab truncation along lattice direction 001

---------- Setting up 2D ewald sum ----------
Optimum gaussian width for ewald sums = 4.734710 bohr.
Real space sums over 225 unit cells with max indices [  7  7  0  ]
Reciprocal space sums over 81 terms with max indices [  4  4  0  ]

---------- Allocating electronic variables ----------
Initializing wave functions:  reading from 'X.wfns'


---- Citations for features of the code used in this run ----

   Software package:
      R. Sundararaman, K. Letchworth-Weaver, K.A. Schwarz, D. Gunceler, Y. Ozhabes and T.A. Arias, 'JDFTx: software for joint density-functional theory', SoftwareX 6, 278 (2017)

   gga-PBE exchange-correlation functional:
      J.P. Perdew, K. Burke and M. Ernzerhof, Phys. Rev. Lett. 77, 3865 (1996)

   Pseudopotentials:
      M Schlipf and F Gygi, Comput. Phys. Commun. 196, 36 (2015)

   Truncated Coulomb potentials:
      R. Sundararaman and T.A. Arias, Phys. Rev. B 87, 165122 (2013)

   Total energy minimization with Auxiliary Hamiltonian:
      C. Freysoldt, S. Boeck, and J. Neugebauer, Phys. Rev. B 79, 241103(R) (2009)

   Linear-tetrahedron sampling for density of states:
      G. Lehmann and M. Taut, Phys. status solidi (b) 54, 469 (1972)

This list may not be complete. Please suggest additional citations or
report any other bugs at https://github.com/shankar1729/jdftx/issues

Initialization completed successfully at t[s]:      1.22


Setting the auxilliary hamiltonian equal to the subspace hamiltonian.

-------- Electronic minimization -----------
	FillingsUpdate:  mu: -0.070465717  nElectrons: 162.000000
ElecMinimize: Iter:   0  F: -751.351252095332484  |grad|_K:  9.836e-04  alpha:  1.000e+00
	FillingsUpdate:  mu: -0.864787713  nElectrons: 162.000000
	SubspaceRotationAdjust: set factor to 0.598
ElecMinimize: Iter:   1  F: -764.923944140580602  |grad|_K:  6.681e-04  alpha:  2.549e-01  linmin:  4.654e-03  t[s]:     15.98
	FillingsUpdate:  mu: +0.633931757  nElectrons: 162.000000
	SubspaceRotationAdjust: set factor to 0.266
ElecMinimize: Iter:   2  F: -765.264790662478731  |grad|_K:  4.811e-04  alpha:  3.725e-02  linmin:  5.328e-03  t[s]:     22.73
ElecMinimize: 	Predicted alpha/alphaT>3.000000, increasing alphaT to 1.117454e-01.
	FillingsUpdate:  mu: +0.507915169  nElectrons: 162.000000
	SubspaceRotationAdjust: set factor to 0.172
ElecMinimize: Iter:   3  F: -766.197441928213948  |grad|_K:  2.979e-04  alpha:  1.819e-01  linmin:  2.949e-05  t[s]:     31.46
	FillingsUpdate:  mu: -0.156706156  nElectrons: 162.000000
	SubspaceRotationAdjust: set factor to 0.125
	SubspaceRotationAdjust: resetting CG because factor has changed by 0.125438
ElecMinimize: 	State modified externally: resetting search direction.
ElecMinimize: Iter:   4  F: -766.564204143462689  |grad|_K:  1.068e-04  alpha:  6.764e-02
ElecMinimize: 	Predicted alpha/alphaT>3.000000, increasing alphaT to 2.029122e-01.
	FillingsUpdate:  mu: -0.069787142  nElectrons: 162.000000
	SubspaceRotationAdjust: set factor to 0.281
ElecMinimize: Iter:   5  F: -766.723491925354892  |grad|_K:  2.698e-05  alpha:  2.431e-01  linmin:  1.065e-04  t[s]:     50.87
	FillingsUpdate:  mu: -0.139587331  nElectrons: 162.000000
	SubspaceRotationAdjust: set factor to 0.192
ElecMinimize: Iter:   6  F: -766.735051078366268  |grad|_K:  2.066e-05  alpha:  2.769e-01  linmin:  2.142e-04  t[s]:     57.61
	FillingsUpdate:  mu: -0.073694195  nElectrons: 162.000000

Dumping 'X.fillings' ... done
Dumping 'X.wfns' ... done
Dumping 'X.force' ... done
Dumping 'X.eigenvals' ... done
	SubspaceRotationAdjust: set factor to 0.119
ElecMinimize: Iter:   7  F: -766.738262692877242  |grad|_K:  1.419e-05  alpha:  1.289e-01  linmin: -1.037e-04  t[s]:     64.85
ElecMinimize: 	Predicted alpha/alphaT>3.000000, increasing alphaT to 3.867291e-01.
	FillingsUpdate:  mu: -0.091543205  nElectrons: 162.000000
	SubspaceRotationAdjust: set factor to 0.134
ElecMinimize: Iter:   8  F: -766.745275270457910  |grad|_K:  1.253e-05  alpha:  6.029e-01  linmin:  8.019e-05  t[s]:     73.60
	FillingsUpdate:  mu: -0.104189724  nElectrons: 162.000000
	SubspaceRotationAdjust: set factor to 0.154
ElecMinimize: Iter:   9  F: -766.751927146191747  |grad|_K:  1.465e-05  alpha:  7.543e-01  linmin:  6.411e-05  t[s]:     80.50
	FillingsUpdate:  mu: -0.086491034  nElectrons: 162.000000
	SubspaceRotationAdjust: set factor to 0.136
ElecMinimize: Iter:  10  F: -766.757893240883050  |grad|_K:  1.455e-05  alpha:  4.528e-01  linmin: -1.083e-04  t[s]:     87.38
	FillingsUpdate:  mu: -0.127887503  nElectrons: 162.000000
	SubspaceRotationAdjust: set factor to 0.0989
ElecMinimize: Iter:  11  F: -766.760027952966539  |grad|_K:  9.891e-06  alpha:  1.501e-01  linmin: -5.039e-04  t[s]:     94.24
	FillingsUpdate:  mu: -0.120326595  nElectrons: 162.000000
	SubspaceRotationAdjust: set factor to 0.139
ElecMinimize: Iter:  12  F: -766.761929536997286  |grad|_K:  7.315e-06  alpha:  3.068e-01  linmin:  7.449e-05  t[s]:    101.09
	FillingsUpdate:  mu: -0.093450583  nElectrons: 162.000000
	SubspaceRotationAdjust: set factor to 0.112
ElecMinimize: Iter:  13  F: -766.762720378015729  |grad|_K:  6.981e-06  alpha:  2.606e-01  linmin:  2.239e-05  t[s]:    107.93
	FillingsUpdate:  mu: -0.104987180  nElectrons: 162.000000
	SubspaceRotationAdjust: set factor to 0.0881
ElecMinimize: Iter:  14  F: -766.763296912724627  |grad|_K:  4.481e-06  alpha:  2.060e-01  linmin:  2.299e-05  t[s]:    114.81
	FillingsUpdate:  mu: -0.103894918  nElectrons: 162.000000

Dumping 'X.fillings' ... done
Dumping 'X.wfns' ... done
Dumping 'X.force' ... done
Dumping 'X.eigenvals' ... done
	SubspaceRotationAdjust: set factor to 0.103
ElecMinimize: Iter:  15  F: -766.763729536706478  |grad|_K:  3.410e-06  alpha:  3.765e-01  linmin:  1.373e-05  t[s]:    122.23
	FillingsUpdate:  mu: -0.095896402  nElectrons: 162.000000
	SubspaceRotationAdjust: set factor to 0.0918
ElecMinimize: Iter:  16  F: -766.763950467714039  |grad|_K:  3.054e-06  alpha:  3.312e-01  linmin:  9.438e-06  t[s]:    129.10
	FillingsUpdate:  mu: -0.104050605  nElectrons: 162.000000
	SubspaceRotationAdjust: set factor to 0.0776
ElecMinimize: Iter:  17  F: -766.764093047035999  |grad|_K:  2.272e-06  alpha:  2.662e-01  linmin:  8.221e-06  t[s]:    135.94
	FillingsUpdate:  mu: -0.102366577  nElectrons: 162.000000
	SubspaceRotationAdjust: set factor to 0.0959
ElecMinimize: Iter:  18  F: -766.764205280248007  |grad|_K:  1.752e-06  alpha:  3.786e-01  linmin: -2.887e-07  t[s]:    142.69
	FillingsUpdate:  mu: -0.098346919  nElectrons: 162.000000
	SubspaceRotationAdjust: set factor to 0.102
ElecMinimize: Iter:  19  F: -766.764278588591083  |grad|_K:  1.804e-06  alpha:  4.159e-01  linmin: -3.663e-06  t[s]:    149.43
	FillingsUpdate:  mu: -0.102949272  nElectrons: 162.000000
	SubspaceRotationAdjust: set factor to 0.0941
ElecMinimize: Iter:  20  F: -766.764343854155072  |grad|_K:  1.740e-06  alpha:  3.491e-01  linmin: -5.729e-06  t[s]:    156.16
	FillingsUpdate:  mu: -0.099759057  nElectrons: 162.000000
	SubspaceRotationAdjust: set factor to 0.102
ElecMinimize: Iter:  21  F: -766.764407409473506  |grad|_K:  1.527e-06  alpha:  3.652e-01  linmin: -4.515e-06  t[s]:    162.91
	FillingsUpdate:  mu: -0.100233750  nElectrons: 162.000000
	SubspaceRotationAdjust: set factor to 0.117
ElecMinimize: Iter:  22  F: -766.764475656645914  |grad|_K:  1.569e-06  alpha:  5.093e-01  linmin: -2.077e-06  t[s]:    169.64
	FillingsUpdate:  mu: -0.104287697  nElectrons: 162.000000

Dumping 'X.fillings' ... done
Dumping 'X.wfns' ... done
Dumping 'X.force' ... done
Dumping 'X.eigenvals' ... done
	SubspaceRotationAdjust: set factor to 0.115
ElecMinimize: Iter:  23  F: -766.764537550003070  |grad|_K:  1.671e-06  alpha:  4.377e-01  linmin: -2.246e-06  t[s]:    176.98
	FillingsUpdate:  mu: -0.099472784  nElectrons: 162.000000
	SubspaceRotationAdjust: set factor to 0.0915
ElecMinimize: Iter:  24  F: -766.764581484385758  |grad|_K:  1.561e-06  alpha:  2.743e-01  linmin:  1.547e-06  t[s]:    183.73
	FillingsUpdate:  mu: -0.102110534  nElectrons: 162.000000
	SubspaceRotationAdjust: set factor to 0.0862
ElecMinimize: Iter:  25  F: -766.764630807145409  |grad|_K:  1.322e-06  alpha:  3.524e-01  linmin: -8.787e-06  t[s]:    190.46
	FillingsUpdate:  mu: -0.102089582  nElectrons: 162.000000
	SubspaceRotationAdjust: set factor to 0.0907
ElecMinimize: Iter:  26  F: -766.764674969977023  |grad|_K:  1.191e-06  alpha:  4.392e-01  linmin: -5.834e-06  t[s]:    197.19
	FillingsUpdate:  mu: -0.099289293  nElectrons: 162.000000
	SubspaceRotationAdjust: set factor to 0.0812
ElecMinimize: Iter:  27  F: -766.764706080135966  |grad|_K:  1.086e-06  alpha:  3.813e-01  linmin: -3.317e-06  t[s]:    203.92
	FillingsUpdate:  mu: -0.101967633  nElectrons: 162.000000
	SubspaceRotationAdjust: set factor to 0.0702
ElecMinimize: Iter:  28  F: -766.764727922161683  |grad|_K:  8.656e-07  alpha:  3.224e-01  linmin: -2.536e-06  t[s]:    210.65
	FillingsUpdate:  mu: -0.101758018  nElectrons: 162.000000
	SubspaceRotationAdjust: set factor to 0.0749
ElecMinimize: Iter:  29  F: -766.764745075232440  |grad|_K:  7.129e-07  alpha:  3.985e-01  linmin: -3.001e-07  t[s]:    217.38
	FillingsUpdate:  mu: -0.100712369  nElectrons: 162.000000
	SubspaceRotationAdjust: set factor to 0.0734
ElecMinimize: Iter:  30  F: -766.764756404969148  |grad|_K:  6.092e-07  alpha:  3.881e-01  linmin: -1.754e-06  t[s]:    224.20
	FillingsUpdate:  mu: -0.101987962  nElectrons: 162.000000

Dumping 'X.fillings' ... done
Dumping 'X.wfns' ... done
Dumping 'X.force' ... done
Dumping 'X.eigenvals' ... done
	SubspaceRotationAdjust: set factor to 0.0704
ElecMinimize: Iter:  31  F: -766.764764378984069  |grad|_K:  5.298e-07  alpha:  3.741e-01  linmin: -1.326e-06  t[s]:    231.66
	FillingsUpdate:  mu: -0.101701855  nElectrons: 162.000000
	SubspaceRotationAdjust: set factor to 0.0781
ElecMinimize: Iter:  32  F: -766.764771624004538  |grad|_K:  4.906e-07  alpha:  4.493e-01  linmin: -4.902e-06  t[s]:    238.51
	FillingsUpdate:  mu: -0.100814227  nElectrons: 162.000000
	SubspaceRotationAdjust: set factor to 0.0811
ElecMinimize: Iter:  33  F: -766.764777679637746  |grad|_K:  4.884e-07  alpha:  4.379e-01  linmin:  7.796e-06  t[s]:    245.37
	FillingsUpdate:  mu: -0.101915175  nElectrons: 162.000000
	SubspaceRotationAdjust: set factor to 0.0808
ElecMinimize: Iter:  34  F: -766.764783794346044  |grad|_K:  4.980e-07  alpha:  4.464e-01  linmin: -2.257e-05  t[s]:    252.21
	FillingsUpdate:  mu: -0.101451067  nElectrons: 162.000000
	SubspaceRotationAdjust: set factor to 0.0871
ElecMinimize: Iter:  35  F: -766.764790771246226  |grad|_K:  5.171e-07  alpha:  4.893e-01  linmin: -1.386e-05  t[s]:    259.06
	FillingsUpdate:  mu: -0.100824211  nElectrons: 162.000000
	SubspaceRotationAdjust: set factor to 0.0921
ElecMinimize: Iter:  36  F: -766.764799052004605  |grad|_K:  5.847e-07  alpha:  5.386e-01  linmin: -1.082e-05  t[s]:    265.92
	FillingsUpdate:  mu: -0.102344230  nElectrons: 162.000000
	SubspaceRotationAdjust: set factor to 0.0858
ElecMinimize: Iter:  37  F: -766.764808649152087  |grad|_K:  6.776e-07  alpha:  4.879e-01  linmin:  1.545e-05  t[s]:    272.76
	FillingsUpdate:  mu: -0.100760808  nElectrons: 162.000000
	SubspaceRotationAdjust: set factor to 0.0797
ElecMinimize: Iter:  38  F: -766.764818933935089  |grad|_K:  6.544e-07  alpha:  3.739e-01  linmin:  1.475e-04  t[s]:    279.59
	FillingsUpdate:  mu: -0.100689257  nElectrons: 162.000000

Dumping 'X.fillings' ... done
Dumping 'X.wfns' ... done
Dumping 'X.force' ... done
Dumping 'X.eigenvals' ... done
	SubspaceRotationAdjust: set factor to 0.0878
ElecMinimize: Iter:  39  F: -766.764825902858888  |grad|_K:  5.728e-07  alpha:  2.702e-01  linmin:  1.220e-04  t[s]:    287.00
	FillingsUpdate:  mu: -0.101332628  nElectrons: 162.000000
	SubspaceRotationAdjust: set factor to 0.0891
ElecMinimize: Iter:  40  F: -766.764829188678277  |grad|_K:  4.706e-07  alpha:  1.703e-01  linmin: -6.632e-05  t[s]:    293.73
	FillingsUpdate:  mu: -0.101706718  nElectrons: 162.000000
	SubspaceRotationAdjust: set factor to 0.0942
ElecMinimize: Iter:  41  F: -766.764831392117344  |grad|_K:  4.276e-07  alpha:  1.721e-01  linmin:  2.037e-04  t[s]:    300.46
	FillingsUpdate:  mu: -0.101511949  nElectrons: 162.000000
	SubspaceRotationAdjust: set factor to 0.106
ElecMinimize: Iter:  42  F: -766.764833013199336  |grad|_K:  3.861e-07  alpha:  1.568e-01  linmin:  1.055e-04  t[s]:    307.18
	FillingsUpdate:  mu: -0.101173186  nElectrons: 162.000000
	SubspaceRotationAdjust: set factor to 0.118
ElecMinimize: Iter:  43  F: -766.764834327833910  |grad|_K:  3.717e-07  alpha:  1.550e-01  linmin:  7.501e-05  t[s]:    313.92
	FillingsUpdate:  mu: -0.101204125  nElectrons: 162.000000
	SubspaceRotationAdjust: set factor to 0.15
ElecMinimize: Iter:  44  F: -766.764835577784993  |grad|_K:  3.632e-07  alpha:  1.584e-01  linmin:  5.462e-05  t[s]:    320.69
	FillingsUpdate:  mu: -0.101585295  nElectrons: 162.000000
	SubspaceRotationAdjust: set factor to 0.188
ElecMinimize: Iter:  45  F: -766.764836700405453  |grad|_K:  3.723e-07  alpha:  1.487e-01  linmin:  1.164e-05  t[s]:    327.42
	FillingsUpdate:  mu: -0.101693323  nElectrons: 162.000000
	SubspaceRotationAdjust: set factor to 0.197
ElecMinimize: Iter:  46  F: -766.764837974276816  |grad|_K:  4.145e-07  alpha:  1.602e-01  linmin:  9.662e-06  t[s]:    334.16
	FillingsUpdate:  mu: -0.101203065  nElectrons: 162.000000

Dumping 'X.fillings' ... done
Dumping 'X.wfns' ... done
Dumping 'X.force' ... done
Dumping 'X.eigenvals' ... done
	SubspaceRotationAdjust: set factor to 0.219
ElecMinimize: Iter:  47  F: -766.764839237030174  |grad|_K:  4.239e-07  alpha:  1.279e-01  linmin:  5.890e-06  t[s]:    341.40
	FillingsUpdate:  mu: -0.101046095  nElectrons: 162.000000
	SubspaceRotationAdjust: set factor to 0.234
ElecMinimize: Iter:  48  F: -766.764840712763771  |grad|_K:  4.531e-07  alpha:  1.431e-01  linmin: -1.058e-05  t[s]:    348.13
	FillingsUpdate:  mu: -0.101493072  nElectrons: 162.000000
	SubspaceRotationAdjust: set factor to 0.274
ElecMinimize: Iter:  49  F: -766.764842048901983  |grad|_K:  4.577e-07  alpha:  1.133e-01  linmin:  6.974e-06  t[s]:    354.87
	FillingsUpdate:  mu: -0.101420988  nElectrons: 162.000000
	SubspaceRotationAdjust: set factor to 0.356
ElecMinimize: Iter:  50  F: -766.764843539470235  |grad|_K:  4.685e-07  alpha:  1.239e-01  linmin: -2.087e-05  t[s]:    361.60
	FillingsUpdate:  mu: -0.100883346  nElectrons: 162.000000
	SubspaceRotationAdjust: set factor to 0.418
ElecMinimize: Iter:  51  F: -766.764844812804085  |grad|_K:  5.049e-07  alpha:  1.010e-01  linmin: -1.938e-05  t[s]:    368.45
	FillingsUpdate:  mu: -0.101215481  nElectrons: 162.000000
	SubspaceRotationAdjust: set factor to 0.535
ElecMinimize: Iter:  52  F: -766.764846134593995  |grad|_K:  4.645e-07  alpha:  9.025e-02  linmin: -6.939e-05  t[s]:    375.33
	FillingsUpdate:  mu: -0.101449998  nElectrons: 162.000000
	SubspaceRotationAdjust: set factor to 0.649
ElecMinimize: Iter:  53  F: -766.764847419592229  |grad|_K:  4.849e-07  alpha:  1.027e-01  linmin: -1.817e-04  t[s]:    382.20
	FillingsUpdate:  mu: -0.100862263  nElectrons: 162.000000
	SubspaceRotationAdjust: set factor to 0.612
ElecMinimize: Iter:  54  F: -766.764848344660209  |grad|_K:  5.321e-07  alpha:  6.784e-02  linmin: -6.962e-07  t[s]:    389.07
	FillingsUpdate:  mu: -0.101501919  nElectrons: 162.000000

Dumping 'X.fillings' ... done
Dumping 'X.wfns' ... done
Dumping 'X.force' ... done
Dumping 'X.eigenvals' ... done
	SubspaceRotationAdjust: set factor to 0.537
ElecMinimize: Iter:  55  F: -766.764849249147346  |grad|_K:  4.412e-07  alpha:  5.593e-02  linmin: -6.546e-05  t[s]:    396.54
	FillingsUpdate:  mu: -0.101267294  nElectrons: 162.000000
	SubspaceRotationAdjust: set factor to 0.516
ElecMinimize: Iter:  56  F: -766.764850364174777  |grad|_K:  4.080e-07  alpha:  9.729e-02  linmin: -2.417e-04  t[s]:    403.38
	FillingsUpdate:  mu: -0.101754767  nElectrons: 162.000000
	SubspaceRotationAdjust: set factor to 0.481
ElecMinimize: Iter:  57  F: -766.764851540876748  |grad|_K:  4.308e-07  alpha:  1.183e-01  linmin: -1.657e-04  t[s]:    410.23
	FillingsUpdate:  mu: -0.101063936  nElectrons: 162.000000
	SubspaceRotationAdjust: set factor to 0.39
ElecMinimize: Iter:  58  F: -766.764852439137826  |grad|_K:  4.805e-07  alpha:  8.256e-02  linmin: -5.208e-06  t[s]:    417.08
	FillingsUpdate:  mu: -0.101622229  nElectrons: 162.000000
	SubspaceRotationAdjust: set factor to 0.338
ElecMinimize: Iter:  59  F: -766.764853524787668  |grad|_K:  3.921e-07  alpha:  8.179e-02  linmin: -6.750e-05  t[s]:    423.89
	FillingsUpdate:  mu: -0.101375470  nElectrons: 162.000000
	SubspaceRotationAdjust: set factor to 0.372
ElecMinimize: Iter:  60  F: -766.764854956922591  |grad|_K:  3.708e-07  alpha:  1.593e-01  linmin: -9.187e-05  t[s]:    430.62
	FillingsUpdate:  mu: -0.101052216  nElectrons: 162.000000
	SubspaceRotationAdjust: set factor to 0.406
ElecMinimize: Iter:  61  F: -766.764856339622156  |grad|_K:  3.886e-07  alpha:  1.724e-01  linmin: -2.804e-05  t[s]:    437.37
	FillingsUpdate:  mu: -0.101679022  nElectrons: 162.000000
	SubspaceRotationAdjust: set factor to 0.378
ElecMinimize: Iter:  62  F: -766.764857326123092  |grad|_K:  4.511e-07  alpha:  1.132e-01  linmin: -2.265e-06  t[s]:    444.10
	FillingsUpdate:  mu: -0.101050695  nElectrons: 162.000000

Dumping 'X.fillings' ... done
Dumping 'X.wfns' ... done
Dumping 'X.force' ... done
Dumping 'X.eigenvals' ... done
	SubspaceRotationAdjust: set factor to 0.358
ElecMinimize: Iter:  63  F: -766.764858324105830  |grad|_K:  3.808e-07  alpha:  8.546e-02  linmin: -8.387e-06  t[s]:    451.42
	FillingsUpdate:  mu: -0.101285988  nElectrons: 162.000000
	SubspaceRotationAdjust: set factor to 0.437
ElecMinimize: Iter:  64  F: -766.764859628162526  |grad|_K:  3.611e-07  alpha:  1.566e-01  linmin:  8.064e-06  t[s]:    458.15
	FillingsUpdate:  mu: -0.101444078  nElectrons: 162.000000
	SubspaceRotationAdjust: set factor to 0.529
ElecMinimize: Iter:  65  F: -766.764860970946756  |grad|_K:  3.833e-07  alpha:  1.795e-01  linmin: -9.876e-06  t[s]:    464.90
	FillingsUpdate:  mu: -0.100853269  nElectrons: 162.000000
	SubspaceRotationAdjust: set factor to 0.445
ElecMinimize: Iter:  66  F: -766.764862048124769  |grad|_K:  5.070e-07  alpha:  1.274e-01  linmin: -1.848e-06  t[s]:    471.63
	FillingsUpdate:  mu: -0.101609115  nElectrons: 162.000000
	SubspaceRotationAdjust: set factor to 0.38
ElecMinimize: Iter:  67  F: -766.764862868635760  |grad|_K:  4.058e-07  alpha:  5.546e-02  linmin: -1.533e-05  t[s]:    478.35
	FillingsUpdate:  mu: -0.101450109  nElectrons: 162.000000
	SubspaceRotationAdjust: set factor to 0.473
ElecMinimize: Iter:  68  F: -766.764864195181644  |grad|_K:  3.588e-07  alpha:  1.418e-01  linmin:  1.868e-04  t[s]:    485.09
	FillingsUpdate:  mu: -0.101120038  nElectrons: 162.000000
	SubspaceRotationAdjust: set factor to 0.497
ElecMinimize: Iter:  69  F: -766.764865264602804  |grad|_K:  4.139e-07  alpha:  1.483e-01  linmin:  1.426e-04  t[s]:    491.82
	FillingsUpdate:  mu: -0.101728010  nElectrons: 162.000000
	SubspaceRotationAdjust: set factor to 0.403
ElecMinimize: Iter:  70  F: -766.764865848722025  |grad|_K:  3.886e-07  alpha:  5.955e-02  linmin: -8.063e-05  t[s]:    498.55
	FillingsUpdate:  mu: -0.101420698  nElectrons: 162.000000

Dumping 'X.fillings' ... done
Dumping 'X.wfns' ... done
Dumping 'X.force' ... done
Dumping 'X.eigenvals' ... done
	SubspaceRotationAdjust: set factor to 0.411
ElecMinimize: Iter:  71  F: -766.764866680220166  |grad|_K:  3.193e-07  alpha:  9.638e-02  linmin:  2.390e-04  t[s]:    506.04
	FillingsUpdate:  mu: -0.101252469  nElectrons: 162.000000
	SubspaceRotationAdjust: set factor to 0.428
ElecMinimize: Iter:  72  F: -766.764867298849026  |grad|_K:  3.253e-07  alpha:  1.109e-01  linmin:  1.265e-04  t[s]:    512.90
	FillingsUpdate:  mu: -0.101619087  nElectrons: 162.000000
	SubspaceRotationAdjust: set factor to 0.393
ElecMinimize: Iter:  73  F: -766.764867746818027  |grad|_K:  3.188e-07  alpha:  7.489e-02  linmin: -7.096e-07  t[s]:    519.75
	FillingsUpdate:  mu: -0.101432772  nElectrons: 162.000000
	SubspaceRotationAdjust: set factor to 0.431
ElecMinimize: Iter:  74  F: -766.764868243259571  |grad|_K:  2.891e-07  alpha:  8.513e-02  linmin:  6.226e-05  t[s]:    526.61
	FillingsUpdate:  mu: -0.101284255  nElectrons: 162.000000
	SubspaceRotationAdjust: set factor to 0.497
ElecMinimize: Iter:  75  F: -766.764868705286517  |grad|_K:  3.122e-07  alpha:  9.764e-02  linmin:  4.502e-05  t[s]:    533.45
	FillingsUpdate:  mu: -0.101599278  nElectrons: 162.000000
	SubspaceRotationAdjust: set factor to 0.551
ElecMinimize: Iter:  76  F: -766.764869112408633  |grad|_K:  3.225e-07  alpha:  7.324e-02  linmin:  4.782e-06  t[s]:    540.29
	FillingsUpdate:  mu: -0.101421469  nElectrons: 162.000000
	SubspaceRotationAdjust: set factor to 0.685
ElecMinimize: Iter:  77  F: -766.764869610938945  |grad|_K:  3.216e-07  alpha:  8.365e-02  linmin:  2.198e-05  t[s]:    547.15
	FillingsUpdate:  mu: -0.101266167  nElectrons: 162.000000
	SubspaceRotationAdjust: set factor to 0.625
ElecMinimize: Iter:  78  F: -766.764870149059675  |grad|_K:  3.678e-07  alpha:  9.111e-02  linmin:  1.456e-05  t[s]:    553.99
	FillingsUpdate:  mu: -0.101632130  nElectrons: 162.000000

Dumping 'X.fillings' ... done
Dumping 'X.wfns' ... done
Dumping 'X.force' ... done
Dumping 'X.eigenvals' ... done
	SubspaceRotationAdjust: set factor to 0.519
ElecMinimize: Iter:  79  F: -766.764870611831952  |grad|_K:  3.989e-07  alpha:  5.966e-02  linmin: -2.490e-06  t[s]:    561.49
	FillingsUpdate:  mu: -0.101290731  nElectrons: 162.000000
	SubspaceRotationAdjust: set factor to 0.61
ElecMinimize: Iter:  80  F: -766.764871134157374  |grad|_K:  3.453e-07  alpha:  5.710e-02  linmin:  1.343e-05  t[s]:    568.31
	FillingsUpdate:  mu: -0.101238272  nElectrons: 162.000000
	SubspaceRotationAdjust: set factor to 0.678
ElecMinimize: Iter:  81  F: -766.764871725757644  |grad|_K:  3.633e-07  alpha:  8.674e-02  linmin:  1.652e-05  t[s]:    575.04
	FillingsUpdate:  mu: -0.101612532  nElectrons: 162.000000
	SubspaceRotationAdjust: set factor to 0.634
ElecMinimize: Iter:  82  F: -766.764872172883429  |grad|_K:  4.006e-07  alpha:  5.909e-02  linmin:  7.380e-06  t[s]:    581.77
	FillingsUpdate:  mu: -0.101285554  nElectrons: 162.000000
	SubspaceRotationAdjust: set factor to 0.794
ElecMinimize: Iter:  83  F: -766.764872618949198  |grad|_K:  3.385e-07  alpha:  4.843e-02  linmin:  2.463e-06  t[s]:    588.51
	FillingsUpdate:  mu: -0.101253534  nElectrons: 162.000000
	SubspaceRotationAdjust: set factor to 1.04
	SubspaceRotationAdjust: resetting CG because factor has changed by 8.30299
ElecMinimize: 	State modified externally: resetting search direction.
ElecMinimize: Iter:  84  F: -766.764873099567353  |grad|_K:  3.579e-07  alpha:  7.285e-02
	FillingsUpdate:  mu: -0.102276295  nElectrons: 162.000000
	SubspaceRotationAdjust: set factor to 0.559
ElecMinimize: Iter:  85  F: -766.764873857414727  |grad|_K:  9.645e-07  alpha:  1.030e-01  linmin: -1.792e-05  t[s]:    605.95
	FillingsUpdate:  mu: -0.101375535  nElectrons: 162.000000
	SubspaceRotationAdjust: set factor to 0.329
ElecMinimize: Iter:  86  F: -766.764878819019145  |grad|_K:  3.373e-07  alpha:  9.295e-02  linmin: -8.676e-05  t[s]:    612.69
ElecMinimize: 	Predicted alpha/alphaT>3.000000, increasing alphaT to 2.788618e-01.
	FillingsUpdate:  mu: -0.102054184  nElectrons: 162.000000

Dumping 'X.fillings' ... done
Dumping 'X.wfns' ... done
Dumping 'X.force' ... done
Dumping 'X.eigenvals' ... done
	SubspaceRotationAdjust: set factor to 0.193
ElecMinimize: Iter:  87  F: -766.764880974808761  |grad|_K:  4.641e-07  alpha:  3.263e-01  linmin: -7.819e-05  t[s]:    621.99
	FillingsUpdate:  mu: -0.101142147  nElectrons: 162.000000
	SubspaceRotationAdjust: set factor to 0.106
	SubspaceRotationAdjust: resetting CG because factor has changed by 0.10201
ElecMinimize: 	State modified externally: resetting search direction.
ElecMinimize: Iter:  88  F: -766.764881635202755  |grad|_K:  2.006e-07  alpha:  5.309e-02
ElecMinimize: 	Predicted alpha/alphaT>3.000000, increasing alphaT to 1.592569e-01.
	FillingsUpdate:  mu: -0.101530549  nElectrons: 162.000000
	SubspaceRotationAdjust: set factor to 0.24
ElecMinimize: Iter:  89  F: -766.764882245810668  |grad|_K:  1.499e-07  alpha:  2.627e-01  linmin: -8.942e-04  t[s]:    641.38
	FillingsUpdate:  mu: -0.100908296  nElectrons: 162.000000
	SubspaceRotationAdjust: set factor to 0.159
ElecMinimize: Iter:  90  F: -766.764882997187556  |grad|_K:  2.847e-07  alpha:  5.787e-01  linmin:  2.094e-04  t[s]:    648.11
	FillingsUpdate:  mu: -0.101674999  nElectrons: 162.000000
	SubspaceRotationAdjust: set factor to 0.0852
ElecMinimize: Iter:  91  F: -766.764883551262528  |grad|_K:  1.821e-07  alpha:  1.197e-01  linmin: -1.915e-05  t[s]:    654.95
ElecMinimize: 	Predicted alpha/alphaT>3.000000, increasing alphaT to 3.589882e-01.
	FillingsUpdate:  mu: -0.101210907  nElectrons: 162.000000
	SubspaceRotationAdjust: set factor to 0.0739
ElecMinimize: Iter:  92  F: -766.764884530134736  |grad|_K:  1.815e-07  alpha:  5.136e-01  linmin:  5.847e-06  t[s]:    663.84
	FillingsUpdate:  mu: -0.101277115  nElectrons: 162.000000
	SubspaceRotationAdjust: set factor to 0.0758
ElecMinimize: Iter:  93  F: -766.764885319257246  |grad|_K:  1.279e-07  alpha:  4.174e-01  linmin:  2.511e-06  t[s]:    670.69
	FillingsUpdate:  mu: -0.101369326  nElectrons: 162.000000
	SubspaceRotationAdjust: set factor to 0.0771
ElecMinimize: Iter:  94  F: -766.764885783691057  |grad|_K:  1.218e-07  alpha:  4.941e-01  linmin:  5.956e-05  t[s]:    677.55
	FillingsUpdate:  mu: -0.101259191  nElectrons: 162.000000

Dumping 'X.fillings' ... done
Dumping 'X.wfns' ... done
Dumping 'X.force' ... done
Dumping 'X.eigenvals' ... done
	SubspaceRotationAdjust: set factor to 0.0746
ElecMinimize: Iter:  95  F: -766.764886290490040  |grad|_K:  1.246e-07  alpha:  5.955e-01  linmin: -6.283e-06  t[s]:    685.01
	FillingsUpdate:  mu: -0.101586590  nElectrons: 162.000000
	SubspaceRotationAdjust: set factor to 0.071
ElecMinimize: Iter:  96  F: -766.764886908793642  |grad|_K:  1.660e-07  alpha:  6.937e-01  linmin:  1.730e-05  t[s]:    691.86
	FillingsUpdate:  mu: -0.101168664  nElectrons: 162.000000
	SubspaceRotationAdjust: set factor to 0.0643
ElecMinimize: Iter:  97  F: -766.764887758071040  |grad|_K:  1.494e-07  alpha:  5.368e-01  linmin:  2.203e-05  t[s]:    698.72
	FillingsUpdate:  mu: -0.101369098  nElectrons: 162.000000
	SubspaceRotationAdjust: set factor to 0.0611
ElecMinimize: Iter:  98  F: -766.764888425126401  |grad|_K:  1.391e-07  alpha:  5.207e-01  linmin:  2.054e-05  t[s]:    705.56
	FillingsUpdate:  mu: -0.101288364  nElectrons: 162.000000
	SubspaceRotationAdjust: set factor to 0.0642
ElecMinimize: Iter:  99  F: -766.764888918615156  |grad|_K:  1.131e-07  alpha:  4.452e-01  linmin:  1.581e-05  t[s]:    712.36
	FillingsUpdate:  mu: -0.101098240  nElectrons: 162.000000
	SubspaceRotationAdjust: set factor to 0.0638
ElecMinimize: Iter: 100  F: -766.764889322735598  |grad|_K:  1.216e-07  alpha:  5.508e-01  linmin:  1.590e-05  t[s]:    719.11
	FillingsUpdate:  mu: -0.101464838  nElectrons: 162.000000
	SubspaceRotationAdjust: set factor to 0.0611
ElecMinimize: Iter: 101  F: -766.764889891430016  |grad|_K:  1.380e-07  alpha:  6.713e-01  linmin:  3.420e-05  t[s]:    725.84
	FillingsUpdate:  mu: -0.101397082  nElectrons: 162.000000
	SubspaceRotationAdjust: set factor to 0.0623
ElecMinimize: Iter: 102  F: -766.764890570287434  |grad|_K:  1.551e-07  alpha:  6.227e-01  linmin: -1.350e-05  t[s]:    732.57
	FillingsUpdate:  mu: -0.101402490  nElectrons: 162.000000

Dumping 'X.fillings' ... done
Dumping 'X.wfns' ... done
Dumping 'X.force' ... done
Dumping 'X.eigenvals' ... done
	SubspaceRotationAdjust: set factor to 0.0674
ElecMinimize: Iter: 103  F: -766.764891319502226  |grad|_K:  1.442e-07  alpha:  5.413e-01  linmin: -8.788e-06  t[s]:    740.02
	FillingsUpdate:  mu: -0.101624302  nElectrons: 162.000000
	SubspaceRotationAdjust: set factor to 0.0709
ElecMinimize: Iter: 104  F: -766.764892025763174  |grad|_K:  1.559e-07  alpha:  5.902e-01  linmin: -1.728e-05  t[s]:    746.76
	FillingsUpdate:  mu: -0.101127557  nElectrons: 162.000000
	SubspaceRotationAdjust: set factor to 0.072
ElecMinimize: Iter: 105  F: -766.764893041439905  |grad|_K:  2.255e-07  alpha:  7.301e-01  linmin:  9.958e-05  t[s]:    753.49
	FillingsUpdate:  mu: -0.101259888  nElectrons: 162.000000
	SubspaceRotationAdjust: set factor to 0.0809
ElecMinimize: Iter: 106  F: -766.764894633438757  |grad|_K:  2.198e-07  alpha:  4.194e-01  linmin: -6.237e-04  t[s]:    760.61
	FillingsUpdate:  mu: -0.101390842  nElectrons: 162.000000
	SubspaceRotationAdjust: set factor to 0.0905
ElecMinimize: Iter: 107  F: -766.764895314823093  |grad|_K:  1.855e-07  alpha:  1.768e-01  linmin: -9.070e-04  t[s]:    767.45
	FillingsUpdate:  mu: -0.101379736  nElectrons: 162.000000
	SubspaceRotationAdjust: set factor to 0.105
ElecMinimize: Iter: 108  F: -766.764895692902655  |grad|_K:  1.640e-07  alpha:  1.633e-01  linmin:  3.250e-04  t[s]:    774.27
	FillingsUpdate:  mu: -0.101314579  nElectrons: 162.000000
	SubspaceRotationAdjust: set factor to 0.117
ElecMinimize: Iter: 109  F: -766.764895867596238  |grad|_K:  1.528e-07  alpha:  1.169e-01  linmin:  6.709e-05  t[s]:    781.08
	FillingsUpdate:  mu: -0.101283266  nElectrons: 162.000000
	SubspaceRotationAdjust: set factor to 0.133
ElecMinimize: Iter: 110  F: -766.764896012793088  |grad|_K:  1.437e-07  alpha:  1.090e-01  linmin:  1.736e-04  t[s]:    787.91
	FillingsUpdate:  mu: -0.101334555  nElectrons: 162.000000

Dumping 'X.fillings' ... done
Dumping 'X.wfns' ... done
Dumping 'X.force' ... done
Dumping 'X.eigenvals' ... done
	SubspaceRotationAdjust: set factor to 0.155
ElecMinimize: Iter: 111  F: -766.764896124621600  |grad|_K:  1.354e-07  alpha:  9.682e-02  linmin:  8.009e-05  t[s]:    795.65
	FillingsUpdate:  mu: -0.101425448  nElectrons: 162.000000
	SubspaceRotationAdjust: set factor to 0.176
ElecMinimize: Iter: 112  F: -766.764896219750426  |grad|_K:  1.308e-07  alpha:  9.128e-02  linmin:  7.941e-05  t[s]:    802.50
	FillingsUpdate:  mu: -0.101471568  nElectrons: 162.000000
	SubspaceRotationAdjust: set factor to 0.207
ElecMinimize: Iter: 113  F: -766.764896306864102  |grad|_K:  1.304e-07  alpha:  8.967e-02  linmin:  1.119e-04  t[s]:    809.37
ElecMinimize: Converged (|Delta F|<1.000000e-07 for 2 iters).
Setting wave functions to eigenvectors of Hamiltonian

# Ionic positions in lattice coordinates:
ion Na   0.000000000000000   0.000000000000000   0.201010000000000 1
ion Na   0.500000000000000   0.500000000000000   0.236180000000000 1
ion Na   0.000000000000000   0.000000000000000   0.271360000000000 1
ion Na   0.500000000000000   0.500000000000000   0.306530000000000 1
ion Na   0.000000000000000   0.000000000000000   0.341710000000000 1
ion Na   0.500000000000000   0.500000000000000   0.376890000000000 1
ion Na   0.000000000000000   0.000000000000000   0.412060000000000 1
ion Na   0.500000000000000   0.500000000000000   0.447240000000000 1
ion Na   0.000000000000000   0.000000000000000   0.482410000000000 1
ion Na   0.500000000000000   0.500000000000000   0.517590000000000 1
ion Na   0.000000000000000   0.000000000000000   0.552760000000000 1
ion Na   0.500000000000000   0.500000000000000   0.587940000000000 1
ion Na   0.000000000000000   0.000000000000000   0.623110000000000 1
ion Na   0.500000000000000   0.500000000000000   0.658290000000000 1
ion Na   0.000000000000000   0.000000000000000   0.693470000000000 1
ion Na   0.500000000000000   0.500000000000000   0.728640000000000 1
ion Na   0.000000000000000   0.000000000000000   0.763820000000000 1
ion Na   0.500000000000000   0.500000000000000   0.798990000000000 1

# Forces in Lattice coordinates:
force Na  -0.000000000000000   0.000000000000000  -0.044068738401932 1
force Na  -0.000000000000000   0.000000000000000   0.022322141440602 1
force Na   0.000000000000000  -0.000000000000000  -0.000556771545708 1
force Na  -0.000000000000000   0.000000000000000   0.001390389320163 1
force Na  -0.000000000000000  -0.000000000000000   0.004995706610933 1
force Na   0.000000000000000  -0.000000000000000  -0.001285846119344 1
force Na   0.000000000000000  -0.000000000000000  -0.002851778780039 1
force Na   0.000000000000000   0.000000000000000  -0.002289361309213 1
force Na   0.000000000000000   0.000000000000000  -0.000672545587415 1
force Na   0.000000000000000   0.000000000000000   0.000672545587415 1
force Na   0.000000000000000  -0.000000000000000   0.002289361309213 1
force Na   0.000000000000000   0.000000000000000   0.002851778780039 1
force Na  -0.000000000000000  -0.000000000000000   0.001285846119344 1
force Na  -0.000000000000000   0.000000000000000  -0.004995706610933 1
force Na   0.000000000000000   0.000000000000000  -0.001390389321982 1
force Na   0.000000000000000   0.000000000000000   0.000556771542070 1
force Na  -0.000000000000000  -0.000000000000000  -0.022322141442421 1
force Na  -0.000000000000000  -0.000000000000000   0.044068738401933 1

# Energy components:
   Eewald =   -31449.3924451142192993
       EH =   -30835.6675673985700996
     Eloc =    61473.4117393474371056
      Enl =     -232.6883561696648712
   Epulay =        0.0000097719863640
      Exc =     -112.7126438127213959
       KE =      390.3544659956445457
-------------------------------------
     Etot =     -766.6947973801076159
       TS =        0.0700989267565186
-------------------------------------
        F =     -766.7648963068641024

IonicMinimize: Iter:   0  F: -766.764896306864102  |grad|_K:  8.500e-05  t[s]:    810.29
IonicMinimize: Converged (|grad|_K<1.000000e-04).

#--- Lowdin population analysis ---
# oxidation-state Na +0.077 +0.051 +0.048 +0.056 +0.054 +0.054 +0.054 +0.054 +0.054 +0.054 +0.054 +0.054 +0.054 +0.054 +0.056 +0.048 +0.051 +0.077


Dumping 'X.fillings' ... done
Dumping 'X.wfns' ... done
Dumping 'X.ionpos' ... done
Dumping 'X.lattice' ... done
Dumping 'X.n' ... done
Dumping 'X.eigenvals' ... done
Dumping 'X.eigStats' ... 
	eMin: -2.063353 at state 0 ( [ +0.000000 +0.000000 +0.000000 ] spin 0 )
	HOMO: -0.101501 at state 5 ( [ +0.000000 +0.454545 +0.000000 ] spin 0 )
	mu  : -0.101472
	LUMO: -0.101300 at state 19 ( [ +0.363636 +0.454545 +0.000000 ] spin 0 )
	eMax: +0.003551 at state 11 ( [ +0.181818 +0.181818 +0.000000 ] spin 0 )
	HOMO-LUMO gap: +0.000200
	Optical gap  : +0.000864 at state 17 ( [ +0.272727 +0.454545 +0.000000 ] spin 0 )
Dumping 'X.dos' ... done.
End date and time: Thu Nov  9 01:25:48 2023  (Duration: 0-0:13:31.24)
Done!

*************** JDFTx 1.7.0  ***************

Start date and time: Thu Nov  9 01:25:53 2023
Executable jdftx with command-line: -m -i X.in -o X.out
Running on hosts (process indices):  ac0102 (0-20)
Divided in process groups (process indices):  0 (0)  1 (1)  2 (2)  3 (3)  4 (4)  5 (5)  6 (6)  7 (7)  8 (8)  9 (9)  10 (10)  11 (11)  12 (12)  13 (13)  14 (14)  15 (15)  16 (16)  17 (17)  18 (18)  19 (19)  20 (20)
Resource initialization completed at t[s]:      0.01
Run totals: 21 processes, 21 threads, 0 GPUs


Input parsed successfully to the following command list (including defaults):

basis kpoint-dependent
cache-projectors no
coords-type Lattice
core-overlap-check vector
coulomb-interaction Slab 001
coulomb-truncation-embed 0 0 0.5
davidson-band-ratio 1.1
density-of-states Etol 1.000000e-06 Esigma 0.000000e+00 \
		Complete \
	Total \
		Occupied \
	Total
dump End State IonicPositions Lattice ElecDensity CoreDensity EigStats DOS
dump Electronic State Forces
dump Ionic State IonicPositions Forces Lattice DOS
dump-interval Electronic 8
dump-interval Ionic 4
dump-name X.$var
elec-cutoff 30
elec-eigen-algo Davidson
elec-ex-corr gga-PBE
elec-smearing Fermi 0.0095
electronic-minimize  \
	dirUpdateScheme      FletcherReeves \
	linminMethod         DirUpdateRecommended \
	nIterations          2000 \
	history              15 \
	knormThreshold       0 \
	energyDiffThreshold  1e-07 \
	nEnergyDiff          2 \
	alphaTstart          1 \
	alphaTmin            1e-10 \
	updateTestStepSize   yes \
	alphaTreduceFactor   0.1 \
	alphaTincreaseFactor 3 \
	nAlphaAdjustMax      3 \
	wolfeEnergy          0.0001 \
	wolfeGradient        0.9 \
	fdTest               no
exchange-regularization WignerSeitzTruncated
fluid None
fluid-ex-corr (null) lda-PZ
fluid-gummel-loop 10 1.000000e-05
fluid-minimize  \
	dirUpdateScheme      PolakRibiere \
	linminMethod         DirUpdateRecommended \
	nIterations          100 \
	history              15 \
	knormThreshold       0 \
	energyDiffThreshold  0 \
	nEnergyDiff          2 \
	alphaTstart          1 \
	alphaTmin            1e-10 \
	updateTestStepSize   yes \
	alphaTreduceFactor   0.1 \
	alphaTincreaseFactor 3 \
	nAlphaAdjustMax      3 \
	wolfeEnergy          0.0001 \
	wolfeGradient        0.9 \
	fdTest               no
fluid-solvent H2O 55.338 ScalarEOS \
	epsBulk 78.4 \
	pMol 0.92466 \
	epsInf 1.77 \
	Pvap 1.06736e-10 \
	sigmaBulk 4.62e-05 \
	Rvdw 2.61727 \
	Res 1.42 \
	tauNuc 343133 \
	poleEl 15 7 1
forces-output-coords Positions
ion Na   0.000000000000000   0.000000000000000   0.201010000000000 1
ion Na   0.500000000000000   0.500000000000000   0.236180000000000 1
ion Na   0.000000000000000   0.000000000000000   0.271360000000000 1
ion Na   0.500000000000000   0.500000000000000   0.306530000000000 1
ion Na   0.000000000000000   0.000000000000000   0.341710000000000 1
ion Na   0.500000000000000   0.500000000000000   0.376890000000000 1
ion Na   0.000000000000000   0.000000000000000   0.412060000000000 1
ion Na   0.500000000000000   0.500000000000000   0.447240000000000 1
ion Na   0.000000000000000   0.000000000000000   0.482410000000000 1
ion Na   0.500000000000000   0.500000000000000   0.517590000000000 1
ion Na   0.000000000000000   0.000000000000000   0.552760000000000 1
ion Na   0.500000000000000   0.500000000000000   0.587940000000000 1
ion Na   0.000000000000000   0.000000000000000   0.623110000000000 1
ion Na   0.500000000000000   0.500000000000000   0.658290000000000 1
ion Na   0.000000000000000   0.000000000000000   0.693470000000000 1
ion Na   0.500000000000000   0.500000000000000   0.728640000000000 1
ion Na   0.000000000000000   0.000000000000000   0.763820000000000 1
ion Na   0.500000000000000   0.500000000000000   0.798990000000000 1
ion-species SG15/$ID_ONCV_PBE.upf
ion-width 0
ionic-minimize  \
	dirUpdateScheme      L-BFGS \
	linminMethod         DirUpdateRecommended \
	nIterations          0 \
	history              15 \
	knormThreshold       0.0001 \
	energyDiffThreshold  1e-06 \
	nEnergyDiff          2 \
	alphaTstart          1 \
	alphaTmin            1e-10 \
	updateTestStepSize   yes \
	alphaTreduceFactor   0.1 \
	alphaTincreaseFactor 3 \
	nAlphaAdjustMax      3 \
	wolfeEnergy          0.0001 \
	wolfeGradient        0.9 \
	fdTest               no
kpoint   0.000000000000   0.000000000000   0.000000000000  1.00000000000000
kpoint-folding 11 11 1 
latt-move-scale 1 1 1
latt-scale 1 1 1 
lattice  \
	   7.936714821600003   -0.000000000000000   -0.000000000000000  \
	   0.000000000000000    7.936714821600003   -0.000000000000000  \
	   0.000000000000000    0.000000000000000  112.815558189000001 
lattice-minimize  \
	dirUpdateScheme      L-BFGS \
	linminMethod         DirUpdateRecommended \
	nIterations          0 \
	history              15 \
	knormThreshold       0 \
	energyDiffThreshold  1e-06 \
	nEnergyDiff          2 \
	alphaTstart          1 \
	alphaTmin            1e-10 \
	updateTestStepSize   yes \
	alphaTreduceFactor   0.1 \
	alphaTincreaseFactor 3 \
	nAlphaAdjustMax      3 \
	wolfeEnergy          0.0001 \
	wolfeGradient        0.9 \
	fdTest               no
lcao-params -1 1e-06 0.0095
pcm-variant GLSSA13
spintype no-spin
subspace-rotation-factor 1 yes
symmetries automatic
symmetry-threshold 0.0001
wavefunction read X.wfns 90 20.000000



---------- Setting up symmetries ----------

Found 16 point-group symmetries of the bravais lattice
Found 16 space-group symmetries with basis
Applied RMS atom displacement 0 bohrs to make symmetries exact.

---------- Initializing the Grid ----------
R = 
[      7.93671            0            0  ]
[            0      7.93671            0  ]
[            0            0      112.816  ]
unit cell volume = 7106.41
G =
[   0.791661          0          0  ]
[         -0   0.791661          0  ]
[          0         -0  0.0556943  ]
Minimum fftbox size, Smin = [  40  40  560  ]
Chosen fftbox size, S = [  40  40  560  ]

[...]
ion Na   0.000000000000000  -0.000000000000000   0.412181155793107 1
ion Na   0.500000000000000   0.500000000000000   0.447229559199220 1
ion Na  -0.000000000000000  -0.000000000000000   0.482433336387252 1
ion Na   0.500000000000000   0.500000000000000   0.517566663612748 1
ion Na   0.000000000000000  -0.000000000000000   0.552770440800780 1
ion Na   0.500000000000000   0.500000000000000   0.587818844206893 1
ion Na   0.000000000000000   0.000000000000000   0.622876101853905 1
ion Na   0.500000000000000   0.500000000000000   0.658224196081022 1
ion Na   0.000000000000000  -0.000000000000000   0.693634752558870 1
ion Na   0.500000000000000   0.500000000000000   0.728673780753874 1
ion Na   0.000000000000000  -0.000000000000000   0.763380196124557 1
ion Na   0.500000000000000   0.500000000000000   0.798446049184309 1

# Forces in Lattice coordinates:
force Na   0.000000000000000   0.000000000000000  -0.002311801096825 1
force Na   0.000000000000000  -0.000000000000000   0.002406349807748 1
force Na   0.000000000000000  -0.000000000000000  -0.001456990370555 1
force Na   0.000000000000000   0.000000000000000  -0.002218404248565 1
force Na   0.000000000000000   0.000000000000000  -0.002925197792483 1
force Na   0.000000000000000   0.000000000000000  -0.003584868701161 1
force Na   0.000000000000000  -0.000000000000000  -0.004235683102827 1
force Na  -0.000000000000000  -0.000000000000000  -0.002684497981012 1
force Na  -0.000000000000000  -0.000000000000000   0.002030048809469 1
force Na  -0.000000000000000   0.000000000000000  -0.002030048809356 1
force Na  -0.000000000000000   0.000000000000000   0.002684497980557 1
force Na  -0.000000000000000   0.000000000000000   0.004235683102827 1
force Na   0.000000000000000   0.000000000000000   0.003584868702071 1
force Na   0.000000000000000   0.000000000000000   0.002925197792483 1
force Na   0.000000000000000  -0.000000000000000   0.002218404252203 1
force Na   0.000000000000000   0.000000000000000   0.001456990366917 1
force Na   0.000000000000000  -0.000000000000000  -0.002406349807748 1
force Na   0.000000000000000   0.000000000000000   0.002311801095006 1

# Energy components:
   Eewald =   -31419.5714213968130935
       EH =   -30804.9650264061019698
     Eloc =    61412.7913018430626835
      Enl =     -232.7711330410471930
   Epulay =       -0.0000000446704689
      Exc =     -112.7381202234306556
       KE =      390.4758496436090240
-------------------------------------
     Etot =     -766.7785496253916335
       TS =        0.0007386614489575
-------------------------------------
        F =     -766.7792882868405968

IonicMinimize: Iter:   5  F: -766.779288286840597  |grad|_K:  1.416e-05  alpha:  1.000e+00  linmin: -4.356e-01  t[s]:   6014.82

#--- Lowdin population analysis ---
# oxidation-state Na +0.052 +0.050 +0.031 +0.051 +0.040 +0.039 +0.040 +0.041 +0.045 +0.045 +0.041 +0.040 +0.039 +0.040 +0.051 +0.031 +0.050 +0.052


-------- Electronic minimization -----------
	FillingsUpdate:  mu: -0.048981279  nElectrons: 162.000000
ElecMinimize: Iter:   0  F: -766.682646686481689  |grad|_K:  4.397e-05  alpha:  1.000e+00
	FillingsUpdate:  mu: -0.129512819  nElectrons: 162.000000
	SubspaceRotationAdjust: set factor to 0.0491
ElecMinimize: Iter:   1  F: -766.774947996508104  |grad|_K:  7.775e-06  alpha:  2.116e-01  linmin:  6.587e-03  t[s]:   6068.27
	FillingsUpdate:  mu: -0.078584365  nElectrons: 162.000000
	SubspaceRotationAdjust: set factor to 0.0241
ElecMinimize: Iter:   2  F: -766.778372492970902  |grad|_K:  3.113e-06  alpha:  2.509e-01  linmin: -5.544e-04  t[s]:   6099.17
	FillingsUpdate:  mu: -0.092816839  nElectrons: 162.000000
	SubspaceRotationAdjust: set factor to 0.0329
ElecMinimize: Iter:   3  F: -766.779082447907854  |grad|_K:  1.231e-06  alpha:  3.215e-01  linmin:  1.962e-05  t[s]:   6130.35
	FillingsUpdate:  mu: -0.096937638  nElectrons: 162.000000
	SubspaceRotationAdjust: set factor to 0.0333
ElecMinimize: Iter:   4  F: -766.779199952599583  |grad|_K:  5.521e-07  alpha:  3.419e-01  linmin:  2.405e-06  t[s]:   6161.44
	FillingsUpdate:  mu: -0.096611257  nElectrons: 162.000000
	SubspaceRotationAdjust: set factor to 0.0431
ElecMinimize: Iter:   5  F: -766.779227476019742  |grad|_K:  2.895e-07  alpha:  3.980e-01  linmin: -2.756e-07  t[s]:   6192.25
	FillingsUpdate:  mu: -0.096460865  nElectrons: 162.000000
	SubspaceRotationAdjust: set factor to 0.055
ElecMinimize: Iter:   6  F: -766.779236327210469  |grad|_K:  1.996e-07  alpha:  4.656e-01  linmin: -1.998e-06  t[s]:   6223.02
	FillingsUpdate:  mu: -0.096808461  nElectrons: 162.000000

Dumping 'X.fillings' ... done
Dumping 'X.wfns' ... done
Dumping 'X.ionpos' ... done
Dumping 'X.force' ... done
Dumping 'X.eigenvals' ... done
	SubspaceRotationAdjust: set factor to 0.0705
ElecMinimize: Iter:   7  F: -766.779241595872804  |grad|_K:  1.860e-07  alpha:  5.828e-01  linmin: -6.592e-07  t[s]:   6255.68
	FillingsUpdate:  mu: -0.097558409  nElectrons: 162.000000
	SubspaceRotationAdjust: set factor to 0.0851
ElecMinimize: Iter:   8  F: -766.779247195152720  |grad|_K:  2.177e-07  alpha:  7.134e-01  linmin:  3.966e-08  t[s]:   6287.06
	FillingsUpdate:  mu: -0.096371679  nElectrons: 162.000000
	SubspaceRotationAdjust: set factor to 0.0985
ElecMinimize: Iter:   9  F: -766.779255706851700  |grad|_K:  2.734e-07  alpha:  7.917e-01  linmin:  1.342e-06  t[s]:   6318.18
	FillingsUpdate:  mu: -0.096942688  nElectrons: 162.000000
	SubspaceRotationAdjust: set factor to 0.0987
ElecMinimize: Iter:  10  F: -766.779265298445239  |grad|_K:  2.779e-07  alpha:  5.662e-01  linmin: -1.202e-07  t[s]:   6348.96
	FillingsUpdate:  mu: -0.095099250  nElectrons: 162.000000
	SubspaceRotationAdjust: set factor to 0.0867
ElecMinimize: Iter:  11  F: -766.779272219316340  |grad|_K:  2.559e-07  alpha:  3.944e-01  linmin:  5.962e-07  t[s]:   6379.77
	FillingsUpdate:  mu: -0.096719217  nElectrons: 162.000000
	SubspaceRotationAdjust: set factor to 0.0754
ElecMinimize: Iter:  12  F: -766.779277625259283  |grad|_K:  2.134e-07  alpha:  3.641e-01  linmin: -1.602e-06  t[s]:   6410.59
	FillingsUpdate:  mu: -0.096524181  nElectrons: 162.000000
	SubspaceRotationAdjust: set factor to 0.0725
ElecMinimize: Iter:  13  F: -766.779282071861644  |grad|_K:  1.544e-07  alpha:  4.302e-01  linmin: -2.314e-07  t[s]:   6441.72
	FillingsUpdate:  mu: -0.096955434  nElectrons: 162.000000
	SubspaceRotationAdjust: set factor to 0.0744
ElecMinimize: Iter:  14  F: -766.779284392835280  |grad|_K:  1.034e-07  alpha:  4.292e-01  linmin:  3.759e-07  t[s]:   6472.83
	FillingsUpdate:  mu: -0.097345714  nElectrons: 162.000000

Dumping 'X.fillings' ... done
Dumping 'X.wfns' ... done
Dumping 'X.ionpos' ... done
Dumping 'X.force' ... done
Dumping 'X.eigenvals' ... done
	SubspaceRotationAdjust: set factor to 0.0724
ElecMinimize: Iter:  15  F: -766.779285378510849  |grad|_K:  7.509e-08  alpha:  4.063e-01  linmin:  1.812e-06  t[s]:   6508.24
	FillingsUpdate:  mu: -0.096950816  nElectrons: 162.000000
	SubspaceRotationAdjust: set factor to 0.0664
ElecMinimize: Iter:  16  F: -766.779285892978464  |grad|_K:  5.878e-08  alpha:  4.022e-01  linmin: -2.841e-06  t[s]:   6539.07
	FillingsUpdate:  mu: -0.097100232  nElectrons: 162.000000
	SubspaceRotationAdjust: set factor to 0.0686
ElecMinimize: Iter:  17  F: -766.779286234893334  |grad|_K:  4.590e-08  alpha:  4.352e-01  linmin: -2.312e-05  t[s]:   6569.86
	FillingsUpdate:  mu: -0.097009158  nElectrons: 162.000000
	SubspaceRotationAdjust: set factor to 0.0808
ElecMinimize: Iter:  18  F: -766.779286468693840  |grad|_K:  3.706e-08  alpha:  4.888e-01  linmin:  1.838e-05  t[s]:   6600.95
	FillingsUpdate:  mu: -0.096852598  nElectrons: 162.000000
	SubspaceRotationAdjust: set factor to 0.0911
ElecMinimize: Iter:  19  F: -766.779286620000903  |grad|_K:  3.295e-08  alpha:  4.866e-01  linmin: -2.515e-05  t[s]:   6632.07
	FillingsUpdate:  mu: -0.096985367  nElectrons: 162.000000
	SubspaceRotationAdjust: set factor to 0.0947
ElecMinimize: Iter:  20  F: -766.779286727337990  |grad|_K:  3.127e-08  alpha:  4.357e-01  linmin:  3.427e-05  t[s]:   6662.88
	FillingsUpdate:  mu: -0.096797285  nElectrons: 162.000000
	SubspaceRotationAdjust: set factor to 0.095
ElecMinimize: Iter:  21  F: -766.779286822655195  |grad|_K:  2.943e-08  alpha:  4.318e-01  linmin: -1.111e-05  t[s]:   6693.70
	FillingsUpdate:  mu: -0.096881975  nElectrons: 162.000000
	SubspaceRotationAdjust: set factor to 0.0959
ElecMinimize: Iter:  22  F: -766.779286918219327  |grad|_K:  2.823e-08  alpha:  4.834e-01  linmin:  2.085e-05  t[s]:   6724.47
	FillingsUpdate:  mu: -0.096734570  nElectrons: 162.000000

Dumping 'X.fillings' ... done
Dumping 'X.wfns' ... done
Dumping 'X.ionpos' ... done
Dumping 'X.force' ... done
Dumping 'X.eigenvals' ... done
	SubspaceRotationAdjust: set factor to 0.0959
ElecMinimize: Iter:  23  F: -766.779287001768694  |grad|_K:  2.528e-08  alpha:  4.633e-01  linmin: -9.253e-06  t[s]:   6758.76
	FillingsUpdate:  mu: -0.096796774  nElectrons: 162.000000
	SubspaceRotationAdjust: set factor to 0.0945
ElecMinimize: Iter:  24  F: -766.779287066247662  |grad|_K:  2.201e-08  alpha:  4.434e-01  linmin: -3.404e-05  t[s]:   6790.00
	FillingsUpdate:  mu: -0.096687064  nElectrons: 162.000000
	SubspaceRotationAdjust: set factor to 0.0892
ElecMinimize: Iter:  25  F: -766.779287115512602  |grad|_K:  2.055e-08  alpha:  4.423e-01  linmin: -2.212e-05  t[s]:   6820.83
	FillingsUpdate:  mu: -0.096801479  nElectrons: 162.000000
	SubspaceRotationAdjust: set factor to 0.0784
ElecMinimize: Iter:  26  F: -766.779287155575958  |grad|_K:  1.900e-08  alpha:  4.099e-01  linmin:  8.594e-07  t[s]:   6851.67
	FillingsUpdate:  mu: -0.096734868  nElectrons: 162.000000
	SubspaceRotationAdjust: set factor to 0.0724
ElecMinimize: Iter:  27  F: -766.779287189401202  |grad|_K:  1.531e-08  alpha:  4.167e-01  linmin: -2.303e-05  t[s]:   6882.48
	FillingsUpdate:  mu: -0.096771359  nElectrons: 162.000000
	SubspaceRotationAdjust: set factor to 0.0749
ElecMinimize: Iter:  28  F: -766.779287214720398  |grad|_K:  1.214e-08  alpha:  4.787e-01  linmin:  1.137e-04  t[s]:   6913.58
	FillingsUpdate:  mu: -0.096796939  nElectrons: 162.000000
	SubspaceRotationAdjust: set factor to 0.076
ElecMinimize: Iter:  29  F: -766.779287228967291  |grad|_K:  9.706e-09  alpha:  4.474e-01  linmin:  7.494e-05  t[s]:   6944.77
	FillingsUpdate:  mu: -0.096770036  nElectrons: 162.000000
	SubspaceRotationAdjust: set factor to 0.0721
ElecMinimize: Iter:  30  F: -766.779287238328834  |grad|_K:  8.269e-09  alpha:  4.288e-01  linmin: -2.139e-05  t[s]:   6975.66
	FillingsUpdate:  mu: -0.096805865  nElectrons: 162.000000

Dumping 'X.fillings' ... done
Dumping 'X.wfns' ... done
Dumping 'X.ionpos' ... done
Dumping 'X.force' ... done
Dumping 'X.eigenvals' ... done
	SubspaceRotationAdjust: set factor to 0.07
ElecMinimize: Iter:  31  F: -766.779287244728494  |grad|_K:  6.938e-09  alpha:  4.352e-01  linmin: -1.879e-04  t[s]:   7012.04
ElecMinimize: Converged (|Delta F|<1.000000e-08 for 2 iters).
Setting wave functions to eigenvectors of Hamiltonian
Converging empty states (this may take a while): |deigs|: 1.219e-08
IonicMinimize: 	Wolfe criterion not satisfied: alpha: 1  (E-E0)/|gdotd0|: 0.307275  gdotd/gdotd0: -0.996673 (taking cubic step)

-------- Electronic minimization -----------
	FillingsUpdate:  mu: -0.095834690  nElectrons: 162.000000
ElecMinimize: Iter:   0  F: -766.779252984885261  |grad|_K:  7.005e-07  alpha:  1.000e+00
	FillingsUpdate:  mu: -0.097760559  nElectrons: 162.000000
	SubspaceRotationAdjust: set factor to 0.0532
ElecMinimize: Iter:   1  F: -766.779284405691214  |grad|_K:  1.802e-07  alpha:  2.822e-01  linmin: -2.557e-05  t[s]:   7102.99
	FillingsUpdate:  mu: -0.096642265  nElectrons: 162.000000
	SubspaceRotationAdjust: set factor to 0.0334
ElecMinimize: Iter:   2  F: -766.779286551378846  |grad|_K:  9.616e-08  alpha:  2.910e-01  linmin: -2.296e-06  t[s]:   7133.80
	FillingsUpdate:  mu: -0.097177213  nElectrons: 162.000000
	SubspaceRotationAdjust: set factor to 0.0362
ElecMinimize: Iter:   3  F: -766.779287443867929  |grad|_K:  5.885e-08  alpha:  4.255e-01  linmin: -4.317e-05  t[s]:   7164.30
	FillingsUpdate:  mu: -0.097307744  nElectrons: 162.000000
	SubspaceRotationAdjust: set factor to 0.0391
ElecMinimize: Iter:   4  F: -766.779287840262327  |grad|_K:  4.451e-08  alpha:  5.054e-01  linmin:  1.443e-04  t[s]:   7194.80
	FillingsUpdate:  mu: -0.097004775  nElectrons: 162.000000
	SubspaceRotationAdjust: set factor to 0.0401
ElecMinimize: Iter:   5  F: -766.779288128821577  |grad|_K:  3.544e-08  alpha:  6.423e-01  linmin: -3.768e-05  t[s]:   7225.41
	FillingsUpdate:  mu: -0.096928801  nElectrons: 162.000000
	SubspaceRotationAdjust: set factor to 0.0452
ElecMinimize: Iter:   6  F: -766.779288298476558  |grad|_K:  2.940e-08  alpha:  5.967e-01  linmin:  6.126e-05  t[s]:   7256.30
	FillingsUpdate:  mu: -0.096893185  nElectrons: 162.000000

Dumping 'X.fillings' ... done
Dumping 'X.wfns' ... done
Dumping 'X.ionpos' ... done
Dumping 'X.force' ... done
Dumping 'X.eigenvals' ... done
	SubspaceRotationAdjust: set factor to 0.0488
ElecMinimize: Iter:   7  F: -766.779288402378143  |grad|_K:  2.201e-08  alpha:  5.281e-01  linmin:  3.114e-05  t[s]:   7288.88
	FillingsUpdate:  mu: -0.096849099  nElectrons: 162.000000
	SubspaceRotationAdjust: set factor to 0.0536
ElecMinimize: Iter:   8  F: -766.779288465264926  |grad|_K:  1.812e-08  alpha:  5.708e-01  linmin: -2.025e-05  t[s]:   7319.55
	FillingsUpdate:  mu: -0.096788979  nElectrons: 162.000000
	SubspaceRotationAdjust: set factor to 0.0583
ElecMinimize: Iter:   9  F: -766.779288512336052  |grad|_K:  1.733e-08  alpha:  6.212e-01  linmin: -2.927e-04  t[s]:   7350.22
	FillingsUpdate:  mu: -0.096821470  nElectrons: 162.000000
	SubspaceRotationAdjust: set factor to 0.0639
ElecMinimize: Iter:  10  F: -766.779288553424294  |grad|_K:  1.717e-08  alpha:  6.011e-01  linmin: -6.500e-04  t[s]:   7380.79
	FillingsUpdate:  mu: -0.096863276  nElectrons: 162.000000
	SubspaceRotationAdjust: set factor to 0.0688
ElecMinimize: Iter:  11  F: -766.779288587520341  |grad|_K:  1.531e-08  alpha:  5.028e-01  linmin:  2.402e-04  t[s]:   7411.69
	FillingsUpdate:  mu: -0.096842783  nElectrons: 162.000000
	SubspaceRotationAdjust: set factor to 0.0724
ElecMinimize: Iter:  12  F: -766.779288612933669  |grad|_K:  1.272e-08  alpha:  4.824e-01  linmin: -1.225e-06  t[s]:   7442.64
	FillingsUpdate:  mu: -0.096872053  nElectrons: 162.000000
	SubspaceRotationAdjust: set factor to 0.079
ElecMinimize: Iter:  13  F: -766.779288633279180  |grad|_K:  1.115e-08  alpha:  5.478e-01  linmin:  1.557e-04  t[s]:   7473.15
	FillingsUpdate:  mu: -0.096840757  nElectrons: 162.000000
	SubspaceRotationAdjust: set factor to 0.0848
ElecMinimize: Iter:  14  F: -766.779288649768773  |grad|_K:  1.025e-08  alpha:  5.836e-01  linmin: -4.190e-05  t[s]:   7503.69
	FillingsUpdate:  mu: -0.096840746  nElectrons: 162.000000

Dumping 'X.fillings' ... done
Dumping 'X.wfns' ... done
Dumping 'X.ionpos' ... done
Dumping 'X.force' ... done
Dumping 'X.eigenvals' ... done
	SubspaceRotationAdjust: set factor to 0.0887
ElecMinimize: Iter:  15  F: -766.779288661547866  |grad|_K:  8.870e-09  alpha:  5.019e-01  linmin:  1.882e-04  t[s]:   7536.08
	FillingsUpdate:  mu: -0.096821606  nElectrons: 162.000000
	SubspaceRotationAdjust: set factor to 0.0924
ElecMinimize: Iter:  16  F: -766.779288669609628  |grad|_K:  7.057e-09  alpha:  4.502e-01  linmin: -8.220e-04  t[s]:   7567.49
	FillingsUpdate:  mu: -0.096842505  nElectrons: 162.000000
	SubspaceRotationAdjust: set factor to 0.092
ElecMinimize: Iter:  17  F: -766.779288675760426  |grad|_K:  6.243e-09  alpha:  5.218e-01  linmin:  5.474e-04  t[s]:   7598.42
ElecMinimize: Converged (|Delta F|<1.000000e-08 for 2 iters).
Setting wave functions to eigenvectors of Hamiltonian
Converging empty states (this may take a while): |deigs|: 4.791e-09

# Ionic positions in lattice coordinates:
ion Na   0.000000000000000  -0.000000000000000   0.201498139015442 1
ion Na   0.500000000000000   0.500000000000000   0.236625314618016 1
ion Na   0.000000000000000  -0.000000000000000   0.271326808542645 1
ion Na   0.500000000000000   0.500000000000000   0.306374480302472 1
ion Na  -0.000000000000000  -0.000000000000000   0.341763209481362 1
ion Na   0.500000000000000   0.500000000000000   0.377086996011108 1
ion Na   0.000000000000000  -0.000000000000000   0.412147738854175 1
ion Na   0.500000000000000   0.500000000000000   0.447203937999850 1
ion Na  -0.000000000000000  -0.000000000000000   0.482441025616660 1
ion Na   0.500000000000000   0.500000000000000   0.517558974383340 1
ion Na   0.000000000000000  -0.000000000000000   0.552796062000150 1
ion Na   0.500000000000000   0.500000000000000   0.587852261145825 1
ion Na   0.000000000000000   0.000000000000000   0.622913003988893 1
ion Na   0.500000000000000   0.500000000000000   0.658236790518638 1
ion Na   0.000000000000000  -0.000000000000000   0.693625519697528 1
ion Na   0.500000000000000   0.500000000000000   0.728673191457355 1
ion Na   0.000000000000000  -0.000000000000000   0.763374685381984 1
ion Na   0.500000000000000   0.500000000000000   0.798501860984558 1

# Forces in Lattice coordinates:
force Na  -0.000000000000000  -0.000000000000000   0.000943798774415 1
force Na   0.000000000000000   0.000000000000000   0.001787869229507 1
force Na   0.000000000000000  -0.000000000000000   0.002661153694802 1
force Na   0.000000000000000  -0.000000000000000   0.001031896388552 1
force Na   0.000000000000000   0.000000000000000   0.000309627121275 1
force Na   0.000000000000000  -0.000000000000000  -0.000422114991868 1
force Na   0.000000000000000  -0.000000000000000  -0.002197995454987 1
force Na  -0.000000000000000   0.000000000000000  -0.000115806279837 1
force Na   0.000000000000000   0.000000000000000   0.000455552336060 1
force Na   0.000000000000000  -0.000000000000000  -0.000455552335946 1
force Na  -0.000000000000000  -0.000000000000000   0.000115806279382 1
force Na  -0.000000000000000  -0.000000000000000   0.002197995455896 1
force Na   0.000000000000000  -0.000000000000000   0.000422114990050 1
force Na   0.000000000000000   0.000000000000000  -0.000309627121275 1
force Na   0.000000000000000  -0.000000000000000  -0.001031896390371 1
force Na   0.000000000000000  -0.000000000000000  -0.002661153692983 1
force Na   0.000000000000000   0.000000000000000  -0.001787869231326 1
force Na  -0.000000000000000   0.000000000000000  -0.000943798774416 1

# Energy components:
   Eewald =   -31422.0473739391345589
       EH =   -30807.4402534126347746
     Eloc =    61417.7426675215538125
      Enl =     -232.7710966325566915
   Epulay =       -0.0000000446704689
      Exc =     -112.7379229871609141
       KE =      390.4754313424703014
-------------------------------------
     Etot =     -766.7785481521370912
       TS =        0.0007405236232991
-------------------------------------
        F =     -766.7792886757604265

IonicMinimize: Iter:   6  F: -766.779288675760426  |grad|_K:  7.148e-06  alpha:  3.043e-01  linmin: -1.761e-01  t[s]:   7634.39
IonicMinimize: Converged (|grad|_K<1.000000e-05).

#--- Lowdin population analysis ---
# oxidation-state Na +0.052 +0.050 +0.031 +0.051 +0.040 +0.039 +0.040 +0.041 +0.045 +0.045 +0.041 +0.040 +0.039 +0.040 +0.051 +0.031 +0.050 +0.052


Dumping 'X.fillings' ... done
Dumping 'X.wfns' ... done
Dumping 'X.ionpos' ... done
Dumping 'X.lattice' ... done
Dumping 'X.n' ... done
Dumping 'X.eigenvals' ... done
Dumping 'X.eigStats' ... 
	eMin: -2.058444 at state 0 ( [ +0.000000 +0.000000 +0.000000 ] spin 0 )
	HOMO: -0.097140 at state 17 ( [ +0.272727 +0.454545 +0.000000 ] spin 0 )
	mu  : -0.096843
	LUMO: -0.096150 at state 13 ( [ +0.181818 +0.363636 +0.000000 ] spin 0 )
	eMax: +0.005011 at state 6 ( [ +0.090909 +0.090909 +0.000000 ] spin 0 )
	HOMO-LUMO gap: +0.000990
	Optical gap  : +0.004136 at state 17 ( [ +0.272727 +0.454545 +0.000000 ] spin 0 )
Dumping 'X.dos' ... done.
End date and time: Thu Nov  9 04:54:47 2023  (Duration: 0-2:07:17.84)
Done!
