
*************** JDFTx 1.7.0  ***************

Start date and time: Thu Nov  9 00:40:46 2023
Executable jdftx with command-line: -m -i X.in -o X.out
Running on hosts (process indices):  ac0751 (0-20)
Divided in process groups (process indices):  0 (0)  1 (1)  2 (2)  3 (3)  4 (4)  5 (5)  6 (6)  7 (7)  8 (8)  9 (9)  10 (10)  11 (11)  12 (12)  13 (13)  14 (14)  15 (15)  16 (16)  17 (17)  18 (18)  19 (19)  20 (20)
Resource initialization completed at t[s]:      0.03
Run totals: 21 processes, 21 threads, 0 GPUs


Input parsed successfully to the following command list (including defaults):

basis kpoint-dependent
cache-projectors no
coords-type Lattice
core-overlap-check vector
coulomb-interaction Slab 001
coulomb-truncation-embed 0 0 0.5
davidson-band-ratio 1.1
density-of-states Etol 1.000000e-06 Esigma 0.000000e+00 \
		Complete \
	Total \
		Occupied \
	Total
dump End State IonicPositions Lattice ElecDensity CoreDensity EigStats DOS
dump Electronic State Forces
dump Ionic State IonicPositions Forces Lattice DOS
dump-interval Electronic 8
dump-interval Ionic 4
dump-name X.$var
elec-cutoff 10
elec-eigen-algo Davidson
elec-ex-corr gga-PBE
elec-smearing Fermi 0.0095
electronic-minimize  \
	dirUpdateScheme      FletcherReeves \
	linminMethod         DirUpdateRecommended \
	nIterations          2000 \
	history              15 \
	knormThreshold       0 \
	energyDiffThreshold  1e-06 \
	nEnergyDiff          2 \
	alphaTstart          1 \
	alphaTmin            1e-10 \
	updateTestStepSize   yes \
	alphaTreduceFactor   0.1 \
	alphaTincreaseFactor 3 \
	nAlphaAdjustMax      3 \
	wolfeEnergy          0.0001 \
	wolfeGradient        0.9 \
	fdTest               no
exchange-regularization WignerSeitzTruncated
fluid None
fluid-ex-corr (null) lda-PZ
fluid-gummel-loop 10 1.000000e-05
fluid-minimize  \
	dirUpdateScheme      PolakRibiere \
	linminMethod         DirUpdateRecommended \
	nIterations          100 \
	history              15 \
	knormThreshold       0 \
	energyDiffThreshold  0 \
	nEnergyDiff          2 \
	alphaTstart          1 \
	alphaTmin            1e-10 \
	updateTestStepSize   yes \
	alphaTreduceFactor   0.1 \
	alphaTincreaseFactor 3 \
	nAlphaAdjustMax      3 \
	wolfeEnergy          0.0001 \
	wolfeGradient        0.9 \
	fdTest               no
fluid-solvent H2O 55.338 ScalarEOS \
	epsBulk 78.4 \
	pMol 0.92466 \
	epsInf 1.77 \
	Pvap 1.06736e-10 \
	sigmaBulk 4.62e-05 \
	Rvdw 2.61727 \
	Res 1.42 \
	tauNuc 343133 \
	poleEl 15 7 1
forces-output-coords Positions
initial-state X.$var
ion Na   0.000000000000000   0.000000000000000   0.233920000000000 1
ion Na   0.500000000000000   0.500000000000000   0.274860000000000 1
ion Na   0.000000000000000   0.000000000000000   0.315790000000000 1
ion Na   0.500000000000000   0.500000000000000   0.356730000000000 1
ion Na   0.000000000000000   0.000000000000000   0.397660000000000 1
ion Na   0.500000000000000   0.500000000000000   0.438600000000000 1
ion Na   0.000000000000000   0.000000000000000   0.479530000000000 1
ion Na   0.500000000000000   0.500000000000000   0.520470000000000 1
ion Na   0.000000000000000   0.000000000000000   0.561400000000000 1
ion Na   0.500000000000000   0.500000000000000   0.602340000000000 1
ion Na   0.000000000000000   0.000000000000000   0.643270000000000 1
ion Na   0.500000000000000   0.500000000000000   0.684210000000000 1
ion Na   0.000000000000000   0.000000000000000   0.725140000000000 1
ion Na   0.500000000000000   0.500000000000000   0.766080000000000 1
ion-species SG15/$ID_ONCV_PBE.upf
ion-width 0
ionic-minimize  \
	dirUpdateScheme      L-BFGS \
	linminMethod         DirUpdateRecommended \
	nIterations          0 \
	history              15 \
	knormThreshold       0.0001 \
	energyDiffThreshold  1e-06 \
	nEnergyDiff          2 \
	alphaTstart          1 \
	alphaTmin            1e-10 \
	updateTestStepSize   yes \
	alphaTreduceFactor   0.1 \
	alphaTincreaseFactor 3 \
	nAlphaAdjustMax      3 \
	wolfeEnergy          0.0001 \
	wolfeGradient        0.9 \
	fdTest               no
kpoint   0.000000000000   0.000000000000   0.000000000000  1.00000000000000
kpoint-folding 11 11 1 
latt-move-scale 1 1 1
latt-scale 1.88973 1.88973 1.88973 
lattice  \
	   4.199920000000001   -0.000000000000000   -0.000000000000000  \
	   0.000000000000000    4.199920000000001   -0.000000000000000  \
	   0.000000000000000    0.000000000000000   51.299499999999995 
lattice-minimize  \
	dirUpdateScheme      L-BFGS \
	linminMethod         DirUpdateRecommended \
	nIterations          0 \
	history              15 \
	knormThreshold       0 \
	energyDiffThreshold  1e-06 \
	nEnergyDiff          2 \
	alphaTstart          1 \
	alphaTmin            1e-10 \
	updateTestStepSize   yes \
	alphaTreduceFactor   0.1 \
	alphaTincreaseFactor 3 \
	nAlphaAdjustMax      3 \
	wolfeEnergy          0.0001 \
	wolfeGradient        0.9 \
	fdTest               no
lcao-params -1 1e-06 0.0095
pcm-variant GLSSA13
spintype no-spin
subspace-rotation-factor 1 yes
symmetries automatic
symmetry-threshold 0.0001



---------- Setting up symmetries ----------

Found 16 point-group symmetries of the bravais lattice
Found 16 space-group symmetries with basis
Applied RMS atom displacement 0 bohrs to make symmetries exact.

---------- Initializing the Grid ----------
R = 
[      7.93671            0            0  ]
[            0      7.93671            0  ]
[            0            0      96.9422  ]
unit cell volume = 6106.53
G =
[   0.791661          0          0  ]
[         -0   0.791661          0  ]
[          0         -0  0.0648137  ]
Minimum fftbox size, Smin = [  24  24  276  ]
Chosen fftbox size, S = [  24  24  280  ]

---------- Exchange Correlation functional ----------
Initalized PBE GGA exchange.
Initalized PBE GGA correlation.

---------- Setting up pseudopotentials ----------
Width of ionic core gaussian charges (only for fluid interactions / plotting) set to 0

Reading pseudopotential file '/net/software/testing/software/jdftx/1.7.0-foss-2021b-mkl/share/jdftx/pseudopotentials/SG15/Na_ONCV_PBE.upf':
  'Na' pseudopotential, 'PBE' functional
  Generated using ONCVPSP code by D. R. Hamann
  Author: Martin Schlipf and Francois Gygi  Date: 150915.
  9 valence electrons, 3 orbitals, 4 projectors, 1992 radial grid points, with lMax = 1
  Transforming local potential to a uniform radial grid of dG=0.02 with 816 points.
  Transforming nonlocal projectors to a uniform radial grid of dG=0.02 with 307 points.
    2S    l: 0   occupation:  2.0   eigenvalue: -2.085640
    2P    l: 1   occupation:  6.0   eigenvalue: -1.053708
    3S    l: 0   occupation:  1.0   eigenvalue: -0.100838
  Transforming atomic orbitals to a uniform radial grid of dG=0.02 with 307 points.
  Core radius for overlap checks: 2.01 bohrs.
  Reading pulay file /net/software/testing/software/jdftx/1.7.0-foss-2021b-mkl/share/jdftx/pseudopotentials/SG15/Na_ONCV_PBE.pulay ... using dE_dnG = -1.681960e+00 computed for Ecut = 10.

Initialized 1 species with 14 total atoms.

Folded 1 k-points by 11x11x1 to 121 k-points.

---------- Setting up k-points, bands, fillings ----------
Reduced to 21 k-points under symmetry. 
Computing the number of bands and number of electrons
Calculating initial fillings.
nElectrons: 126.000000   nBands: 70   nStates: 21

----- Setting up reduced wavefunction bases (one per k-point) -----
average nbasis = 9221.793 , ideal nbasis = 9223.345

----- Initializing Supercell corresponding to k-point mesh -----
Lattice vector linear combinations in supercell:
[  11   0   0  ]
[   0  11   0  ]
[   0   0   1  ]
Supercell lattice vectors:
[  87.3039  0  0  ]
[  0  87.3039  0  ]
[  0  0  96.9422  ]

---------- Setting up coulomb interaction ----------
Setting up double-sized grid for truncated Coulomb potentials:
R = 
[      7.93671            0            0  ]
[            0      7.93671            0  ]
[            0            0      193.884  ]
unit cell volume = 12213.1
G =
[   0.791661          0          0  ]
[         -0   0.791661          0  ]
[          0         -0  0.0324069  ]
Chosen fftbox size, S = [  24  24  560  ]
Integer grid location selected as the embedding center:
   Grid: [  0  0  140  ]
   Lattice: [  0  0  0.5  ]
   Cartesian: [  0  0  48.4711  ]
Constructing Wigner-Seitz cell: 6 faces (6 quadrilaterals, 0 hexagons)
Range-separation parameter for embedded mesh potentials due to point charges: 0.742314 bohrs.
Initialized slab truncation along lattice direction 001

---------- Setting up 2D ewald sum ----------
Optimum gaussian width for ewald sums = 4.734710 bohr.
Real space sums over 225 unit cells with max indices [  7  7  0  ]
Reciprocal space sums over 81 terms with max indices [  4  4  0  ]

---------- Allocating electronic variables ----------
Initializing wave functions:  linear combination of atomic orbitals
Na pseudo-atom occupations:   s ( 2 1 )  p ( 6 )
	FillingsUpdate:  mu: +0.208890124  nElectrons: 126.000000
LCAOMinimize: Iter:   0  F: -583.3830753142391359  |grad|_K:  6.326e-03  alpha:  1.000e+00
LCAOMinimize: 	Step increased F by 2.752943e-01, reducing alpha to 9.172084e-03.
	FillingsUpdate:  mu: +0.099459557  nElectrons: 126.000000
LCAOMinimize: Iter:   1  F: -583.4156944745119517  |grad|_K:  4.283e-03  alpha:  9.172e-03  linmin: -2.097e-01  cgtest:  9.925e-01  t[s]:      2.43
LCAOMinimize: Encountered beta<0, resetting CG.
LCAOMinimize: 	Predicted alpha/alphaT>3.000000, increasing alphaT to 2.751625e-02.
	FillingsUpdate:  mu: -0.120297670  nElectrons: 126.000000
LCAOMinimize: Iter:   2  F: -583.4436270755531950  |grad|_K:  8.843e-04  alpha:  2.879e-02  linmin:  1.076e-02  cgtest: -7.087e-02  t[s]:      3.37
LCAOMinimize: 	Predicted alpha/alphaT>3.000000, increasing alphaT to 8.637560e-02.
	FillingsUpdate:  mu: -0.158216674  nElectrons: 126.000000
LCAOMinimize: Iter:   3  F: -583.4489468598916346  |grad|_K:  4.540e-04  alpha:  1.309e-01  linmin:  1.619e-03  cgtest:  1.050e-01  t[s]:      4.31
	FillingsUpdate:  mu: -0.120968589  nElectrons: 126.000000
LCAOMinimize: Iter:   4  F: -583.4503607224745565  |grad|_K:  7.938e-04  alpha:  1.307e-01  linmin:  1.485e-05  cgtest:  1.610e-02  t[s]:      5.02
	FillingsUpdate:  mu: -0.143969261  nElectrons: 126.000000
LCAOMinimize: Iter:   5  F: -583.4542338935322050  |grad|_K:  2.710e-04  alpha:  1.165e-01  linmin: -2.684e-04  cgtest: -2.411e-01  t[s]:      5.72
	FillingsUpdate:  mu: -0.143334318  nElectrons: 126.000000
LCAOMinimize: Iter:   6  F: -583.4550094655635348  |grad|_K:  1.786e-04  alpha:  1.967e-01  linmin: -1.182e-04  cgtest: -1.039e-01  t[s]:      6.41
	FillingsUpdate:  mu: -0.151306819  nElectrons: 126.000000
LCAOMinimize: Iter:   7  F: -583.4550809031092058  |grad|_K:  1.147e-04  alpha:  4.187e-02  linmin: -1.246e-04  cgtest: -3.924e-03  t[s]:      7.12
LCAOMinimize: 	Predicted alpha/alphaT>3.000000, increasing alphaT to 1.255997e-01.
	FillingsUpdate:  mu: -0.143347375  nElectrons: 126.000000
LCAOMinimize: Iter:   8  F: -583.4551704987663925  |grad|_K:  1.306e-05  alpha:  1.281e-01  linmin:  6.286e-05  cgtest: -1.622e-02  t[s]:      8.08
	FillingsUpdate:  mu: -0.144233972  nElectrons: 126.000000
LCAOMinimize: Iter:   9  F: -583.4551720499590601  |grad|_K:  1.834e-05  alpha:  1.719e-01  linmin:  4.178e-06  cgtest:  1.039e-04  t[s]:      8.78
	FillingsUpdate:  mu: -0.143425919  nElectrons: 126.000000
LCAOMinimize: Iter:  10  F: -583.4551728757478486  |grad|_K:  8.755e-06  alpha:  4.639e-02  linmin:  7.892e-06  cgtest: -2.755e-04  t[s]:      9.48
LCAOMinimize: 	Predicted alpha/alphaT>3.000000, increasing alphaT to 1.391682e-01.
	FillingsUpdate:  mu: -0.143134751  nElectrons: 126.000000
LCAOMinimize: Iter:  11  F: -583.4551739430218049  |grad|_K:  6.897e-06  alpha:  2.631e-01  linmin: -8.368e-06  cgtest: -8.206e-05  t[s]:     10.42
	FillingsUpdate:  mu: -0.143075640  nElectrons: 126.000000
LCAOMinimize: Iter:  12  F: -583.4551745551344766  |grad|_K:  8.034e-06  alpha:  2.429e-01  linmin: -2.020e-06  cgtest:  2.337e-04  t[s]:     11.13
	FillingsUpdate:  mu: -0.143471275  nElectrons: 126.000000
LCAOMinimize: Iter:  13  F: -583.4551746659147966  |grad|_K:  1.837e-06  alpha:  3.242e-02  linmin: -1.215e-05  cgtest:  1.174e-03  t[s]:     11.84
LCAOMinimize: Converged (|Delta F|<1.000000e-06 for 2 iters).


---- Citations for features of the code used in this run ----

   Software package:
      R. Sundararaman, K. Letchworth-Weaver, K.A. Schwarz, D. Gunceler, Y. Ozhabes and T.A. Arias, 'JDFTx: software for joint density-functional theory', SoftwareX 6, 278 (2017)

   gga-PBE exchange-correlation functional:
      J.P. Perdew, K. Burke and M. Ernzerhof, Phys. Rev. Lett. 77, 3865 (1996)

   Pseudopotentials:
      M Schlipf and F Gygi, Comput. Phys. Commun. 196, 36 (2015)

   Truncated Coulomb potentials:
      R. Sundararaman and T.A. Arias, Phys. Rev. B 87, 165122 (2013)

   Total energy minimization with Auxiliary Hamiltonian:
      C. Freysoldt, S. Boeck, and J. Neugebauer, Phys. Rev. B 79, 241103(R) (2009)

   Linear-tetrahedron sampling for density of states:
      G. Lehmann and M. Taut, Phys. status solidi (b) 54, 469 (1972)

This list may not be complete. Please suggest additional citations or
report any other bugs at https://github.com/shankar1729/jdftx/issues

Initialization completed successfully at t[s]:     11.93


-------- Electronic minimization -----------
	FillingsUpdate:  mu: -0.143471275  nElectrons: 126.000000
ElecMinimize: Iter:   0  F: -583.455174665936624  |grad|_K:  4.587e-04  alpha:  1.000e+00
	FillingsUpdate:  mu: -0.127407230  nElectrons: 126.000000
	SubspaceRotationAdjust: set factor to 1
ElecMinimize: Iter:   1  F: -584.288800238640988  |grad|_K:  1.168e-04  alpha:  2.920e-01  linmin:  2.746e-03  t[s]:     13.67
	FillingsUpdate:  mu: -0.195100242  nElectrons: 126.000000
	SubspaceRotationAdjust: set factor to 0.668
ElecMinimize: Iter:   2  F: -584.351479599992444  |grad|_K:  9.716e-05  alpha:  3.390e-01  linmin:  2.036e-05  t[s]:     14.73
	FillingsUpdate:  mu: -0.119878822  nElectrons: 126.000000
	SubspaceRotationAdjust: set factor to 0.361
ElecMinimize: Iter:   3  F: -584.356046387899823  |grad|_K:  5.242e-05  alpha:  3.525e-02  linmin: -7.203e-05  t[s]:     15.80
ElecMinimize: 	Predicted alpha/alphaT>3.000000, increasing alphaT to 1.057516e-01.
ElecMinimize: 	Predicted alpha/alphaT>3.000000, increasing alphaT to 3.172548e-01.
	FillingsUpdate:  mu: -0.059026451  nElectrons: 126.000000
	SubspaceRotationAdjust: set factor to 0.236
ElecMinimize: Iter:   4  F: -584.369336589885506  |grad|_K:  7.098e-05  alpha:  3.523e-01  linmin:  2.380e-06  t[s]:     17.56
	FillingsUpdate:  mu: -0.127155114  nElectrons: 126.000000
	SubspaceRotationAdjust: set factor to 0.199
ElecMinimize: Iter:   5  F: -584.376531429550482  |grad|_K:  4.361e-05  alpha:  1.026e-01  linmin: -1.517e-04  t[s]:     18.63
ElecMinimize: 	Predicted alpha/alphaT>3.000000, increasing alphaT to 3.077356e-01.
	FillingsUpdate:  mu: -0.197264147  nElectrons: 126.000000
	SubspaceRotationAdjust: set factor to 0.137
ElecMinimize: Iter:   6  F: -584.384973512175748  |grad|_K:  5.958e-05  alpha:  3.200e-01  linmin:  7.355e-05  t[s]:     20.03
	FillingsUpdate:  mu: -0.150816208  nElectrons: 126.000000

Dumping 'X.fillings' ... done
Dumping 'X.wfns' ... done
Dumping 'X.force' ... done
Dumping 'X.eigenvals' ... done
	SubspaceRotationAdjust: set factor to 0.205
ElecMinimize: Iter:   7  F: -584.395188605092812  |grad|_K:  4.607e-05  alpha:  2.120e-01  linmin:  1.171e-06  t[s]:     21.23
	FillingsUpdate:  mu: -0.083078853  nElectrons: 126.000000
	SubspaceRotationAdjust: set factor to 0.172
ElecMinimize: Iter:   8  F: -584.401910695309880  |grad|_K:  4.392e-05  alpha:  2.331e-01  linmin:  6.211e-05  t[s]:     22.29
	FillingsUpdate:  mu: -0.100651921  nElectrons: 126.000000
	SubspaceRotationAdjust: set factor to 0.253
ElecMinimize: Iter:   9  F: -584.407779857520495  |grad|_K:  2.966e-05  alpha:  2.254e-01  linmin: -1.903e-06  t[s]:     23.34
	FillingsUpdate:  mu: -0.137381901  nElectrons: 126.000000
	SubspaceRotationAdjust: set factor to 0.207
ElecMinimize: Iter:  10  F: -584.410521500323853  |grad|_K:  2.796e-05  alpha:  2.291e-01  linmin:  1.849e-04  t[s]:     24.40
	FillingsUpdate:  mu: -0.111411758  nElectrons: 126.000000
	SubspaceRotationAdjust: set factor to 0.219
ElecMinimize: Iter:  11  F: -584.412810796857116  |grad|_K:  1.790e-05  alpha:  2.163e-01  linmin:  4.756e-05  t[s]:     25.47
	FillingsUpdate:  mu: -0.092327331  nElectrons: 126.000000
	SubspaceRotationAdjust: set factor to 0.219
ElecMinimize: Iter:  12  F: -584.414309323905400  |grad|_K:  1.903e-05  alpha:  3.451e-01  linmin:  3.095e-05  t[s]:     26.56
	FillingsUpdate:  mu: -0.116101147  nElectrons: 126.000000
	SubspaceRotationAdjust: set factor to 0.172
ElecMinimize: Iter:  13  F: -584.415356069349855  |grad|_K:  1.520e-05  alpha:  2.117e-01  linmin: -6.331e-06  t[s]:     27.62
	FillingsUpdate:  mu: -0.121930004  nElectrons: 126.000000
	SubspaceRotationAdjust: set factor to 0.212
ElecMinimize: Iter:  14  F: -584.416605269616980  |grad|_K:  1.459e-05  alpha:  3.971e-01  linmin:  5.713e-06  t[s]:     28.68
	FillingsUpdate:  mu: -0.102891142  nElectrons: 126.000000

Dumping 'X.fillings' ... done
Dumping 'X.wfns' ... done
Dumping 'X.force' ... done
Dumping 'X.eigenvals' ... done
	SubspaceRotationAdjust: set factor to 0.165
ElecMinimize: Iter:  15  F: -584.417409860223756  |grad|_K:  1.385e-05  alpha:  2.765e-01  linmin:  1.226e-06  t[s]:     29.87
	FillingsUpdate:  mu: -0.115384554  nElectrons: 126.000000
	SubspaceRotationAdjust: set factor to 0.167
ElecMinimize: Iter:  16  F: -584.418192155914426  |grad|_K:  9.988e-06  alpha:  2.999e-01  linmin:  9.386e-06  t[s]:     30.94
	FillingsUpdate:  mu: -0.122744708  nElectrons: 126.000000
	SubspaceRotationAdjust: set factor to 0.17
ElecMinimize: Iter:  17  F: -584.418728507827836  |grad|_K:  8.987e-06  alpha:  3.968e-01  linmin:  1.182e-05  t[s]:     32.00
	FillingsUpdate:  mu: -0.110402227  nElectrons: 126.000000
	SubspaceRotationAdjust: set factor to 0.129
	SubspaceRotationAdjust: resetting CG because factor has changed by 0.128598
ElecMinimize: 	State modified externally: resetting search direction.
ElecMinimize: Iter:  18  F: -584.419012090882006  |grad|_K:  6.823e-06  alpha:  2.579e-01
	FillingsUpdate:  mu: -0.118840964  nElectrons: 126.000000
	SubspaceRotationAdjust: set factor to 0.209
ElecMinimize: Iter:  19  F: -584.419209139360532  |grad|_K:  4.854e-06  alpha:  3.111e-01  linmin:  2.863e-05  t[s]:     34.69
	FillingsUpdate:  mu: -0.110250701  nElectrons: 126.000000
	SubspaceRotationAdjust: set factor to 0.173
ElecMinimize: Iter:  20  F: -584.419400150831052  |grad|_K:  5.501e-06  alpha:  5.964e-01  linmin:  4.336e-05  t[s]:     35.75
	FillingsUpdate:  mu: -0.119121610  nElectrons: 126.000000
	SubspaceRotationAdjust: set factor to 0.117
ElecMinimize: Iter:  21  F: -584.419556472151157  |grad|_K:  5.284e-06  alpha:  3.796e-01  linmin: -3.275e-06  t[s]:     36.82
	FillingsUpdate:  mu: -0.111000339  nElectrons: 126.000000
	SubspaceRotationAdjust: set factor to 0.0791
ElecMinimize: Iter:  22  F: -584.419700066249447  |grad|_K:  3.946e-06  alpha:  3.780e-01  linmin:  4.450e-05  t[s]:     37.89
	FillingsUpdate:  mu: -0.113490077  nElectrons: 126.000000

Dumping 'X.fillings' ... done
Dumping 'X.wfns' ... done
Dumping 'X.force' ... done
Dumping 'X.eigenvals' ... done
	SubspaceRotationAdjust: set factor to 0.0831
ElecMinimize: Iter:  23  F: -584.419817494741096  |grad|_K:  3.414e-06  alpha:  5.554e-01  linmin:  2.516e-05  t[s]:     39.06
	FillingsUpdate:  mu: -0.115848196  nElectrons: 126.000000
	SubspaceRotationAdjust: set factor to 0.083
ElecMinimize: Iter:  24  F: -584.419910384730883  |grad|_K:  3.390e-06  alpha:  5.865e-01  linmin:  2.502e-05  t[s]:     40.12
	FillingsUpdate:  mu: -0.113897288  nElectrons: 126.000000
	SubspaceRotationAdjust: set factor to 0.0803
ElecMinimize: Iter:  25  F: -584.420008881932290  |grad|_K:  3.031e-06  alpha:  6.308e-01  linmin:  5.160e-05  t[s]:     41.18
	FillingsUpdate:  mu: -0.115252484  nElectrons: 126.000000
	SubspaceRotationAdjust: set factor to 0.0809
ElecMinimize: Iter:  26  F: -584.420085013124435  |grad|_K:  2.882e-06  alpha:  6.106e-01  linmin:  3.173e-05  t[s]:     42.24
	FillingsUpdate:  mu: -0.115349464  nElectrons: 126.000000
	SubspaceRotationAdjust: set factor to 0.0819
ElecMinimize: Iter:  27  F: -584.420137976708020  |grad|_K:  2.155e-06  alpha:  4.690e-01  linmin:  1.123e-05  t[s]:     43.30
	FillingsUpdate:  mu: -0.114503760  nElectrons: 126.000000
	SubspaceRotationAdjust: set factor to 0.0819
ElecMinimize: Iter:  28  F: -584.420172747104743  |grad|_K:  1.914e-06  alpha:  5.508e-01  linmin:  2.676e-05  t[s]:     44.37
	FillingsUpdate:  mu: -0.115275354  nElectrons: 126.000000
	SubspaceRotationAdjust: set factor to 0.0819
ElecMinimize: Iter:  29  F: -584.420200523258472  |grad|_K:  1.792e-06  alpha:  5.577e-01  linmin:  2.295e-05  t[s]:     45.42
	FillingsUpdate:  mu: -0.115022248  nElectrons: 126.000000
	SubspaceRotationAdjust: set factor to 0.083
ElecMinimize: Iter:  30  F: -584.420228265641185  |grad|_K:  1.732e-06  alpha:  6.355e-01  linmin:  3.106e-05  t[s]:     46.49
	FillingsUpdate:  mu: -0.114718939  nElectrons: 126.000000

Dumping 'X.fillings' ... done
Dumping 'X.wfns' ... done
Dumping 'X.force' ... done
Dumping 'X.eigenvals' ... done
	SubspaceRotationAdjust: set factor to 0.0841
ElecMinimize: Iter:  31  F: -584.420250049412516  |grad|_K:  1.388e-06  alpha:  5.342e-01  linmin:  1.437e-05  t[s]:     47.69
	FillingsUpdate:  mu: -0.115284047  nElectrons: 126.000000
	SubspaceRotationAdjust: set factor to 0.0851
ElecMinimize: Iter:  32  F: -584.420261957103548  |grad|_K:  1.038e-06  alpha:  4.543e-01  linmin:  1.209e-05  t[s]:     48.74
	FillingsUpdate:  mu: -0.114928705  nElectrons: 126.000000
	SubspaceRotationAdjust: set factor to 0.0874
ElecMinimize: Iter:  33  F: -584.420270282810407  |grad|_K:  1.020e-06  alpha:  5.682e-01  linmin:  8.047e-06  t[s]:     49.78
	FillingsUpdate:  mu: -0.114725763  nElectrons: 126.000000
	SubspaceRotationAdjust: set factor to 0.0915
ElecMinimize: Iter:  34  F: -584.420278072152200  |grad|_K:  8.260e-07  alpha:  5.502e-01  linmin:  8.786e-06  t[s]:     50.83
	FillingsUpdate:  mu: -0.115072732  nElectrons: 126.000000
	SubspaceRotationAdjust: set factor to 0.094
ElecMinimize: Iter:  35  F: -584.420282689617011  |grad|_K:  7.326e-07  alpha:  4.975e-01  linmin:  7.305e-06  t[s]:     51.89
	FillingsUpdate:  mu: -0.114688689  nElectrons: 126.000000
	SubspaceRotationAdjust: set factor to 0.097
ElecMinimize: Iter:  36  F: -584.420287127550637  |grad|_K:  7.050e-07  alpha:  6.078e-01  linmin:  5.979e-06  t[s]:     52.95
	FillingsUpdate:  mu: -0.114648839  nElectrons: 126.000000
	SubspaceRotationAdjust: set factor to 0.1
ElecMinimize: Iter:  37  F: -584.420291207109699  |grad|_K:  6.977e-07  alpha:  6.035e-01  linmin:  3.127e-06  t[s]:     54.00
	FillingsUpdate:  mu: -0.114897386  nElectrons: 126.000000
	SubspaceRotationAdjust: set factor to 0.101
ElecMinimize: Iter:  38  F: -584.420295408169181  |grad|_K:  6.991e-07  alpha:  6.344e-01  linmin:  8.352e-06  t[s]:     55.06
	FillingsUpdate:  mu: -0.114535810  nElectrons: 126.000000

Dumping 'X.fillings' ... done
Dumping 'X.wfns' ... done
Dumping 'X.force' ... done
Dumping 'X.eigenvals' ... done
	SubspaceRotationAdjust: set factor to 0.0999
ElecMinimize: Iter:  39  F: -584.420299080721406  |grad|_K:  6.443e-07  alpha:  5.527e-01  linmin:  3.793e-06  t[s]:     56.28
	FillingsUpdate:  mu: -0.114880798  nElectrons: 126.000000
	SubspaceRotationAdjust: set factor to 0.0991
ElecMinimize: Iter:  40  F: -584.420302240634896  |grad|_K:  5.374e-07  alpha:  5.596e-01  linmin:  8.686e-06  t[s]:     57.35
	FillingsUpdate:  mu: -0.114892745  nElectrons: 126.000000
	SubspaceRotationAdjust: set factor to 0.1
ElecMinimize: Iter:  41  F: -584.420304247174727  |grad|_K:  4.737e-07  alpha:  5.110e-01  linmin:  4.357e-06  t[s]:     58.44
	FillingsUpdate:  mu: -0.114813588  nElectrons: 126.000000
	SubspaceRotationAdjust: set factor to 0.102
ElecMinimize: Iter:  42  F: -584.420306021309216  |grad|_K:  4.295e-07  alpha:  5.814e-01  linmin:  4.889e-06  t[s]:     59.53
	FillingsUpdate:  mu: -0.115086994  nElectrons: 126.000000
	SubspaceRotationAdjust: set factor to 0.101
ElecMinimize: Iter:  43  F: -584.420307411203112  |grad|_K:  3.968e-07  alpha:  5.537e-01  linmin: -1.218e-06  t[s]:     60.58
	FillingsUpdate:  mu: -0.114864017  nElectrons: 126.000000
	SubspaceRotationAdjust: set factor to 0.102
ElecMinimize: Iter:  44  F: -584.420308575266972  |grad|_K:  3.595e-07  alpha:  5.434e-01  linmin: -1.977e-06  t[s]:     61.63
	FillingsUpdate:  mu: -0.114850479  nElectrons: 126.000000
	SubspaceRotationAdjust: set factor to 0.107
ElecMinimize: Iter:  45  F: -584.420309694635876  |grad|_K:  3.741e-07  alpha:  6.365e-01  linmin:  1.258e-06  t[s]:     62.68
	FillingsUpdate:  mu: -0.115027535  nElectrons: 126.000000
	SubspaceRotationAdjust: set factor to 0.109
ElecMinimize: Iter:  46  F: -584.420310915037135  |grad|_K:  3.704e-07  alpha:  6.410e-01  linmin:  7.202e-07  t[s]:     63.73
	FillingsUpdate:  mu: -0.114805563  nElectrons: 126.000000

Dumping 'X.fillings' ... done
Dumping 'X.wfns' ... done
Dumping 'X.force' ... done
Dumping 'X.eigenvals' ... done
	SubspaceRotationAdjust: set factor to 0.109
ElecMinimize: Iter:  47  F: -584.420311890679613  |grad|_K:  3.185e-07  alpha:  5.228e-01  linmin: -8.653e-07  t[s]:     65.08
	FillingsUpdate:  mu: -0.114959264  nElectrons: 126.000000
	SubspaceRotationAdjust: set factor to 0.111
ElecMinimize: Iter:  48  F: -584.420312660481613  |grad|_K:  3.035e-07  alpha:  5.580e-01  linmin:  8.092e-06  t[s]:     66.13
ElecMinimize: Converged (|Delta F|<1.000000e-06 for 2 iters).
Setting wave functions to eigenvectors of Hamiltonian

# Ionic positions in lattice coordinates:
ion Na   0.000000000000000   0.000000000000000   0.233920000000000 1
ion Na   0.500000000000000   0.500000000000000   0.274860000000000 1
ion Na   0.000000000000000   0.000000000000000   0.315790000000000 1
ion Na   0.500000000000000   0.500000000000000   0.356730000000000 1
ion Na   0.000000000000000   0.000000000000000   0.397660000000000 1
ion Na   0.500000000000000   0.500000000000000   0.438600000000000 1
ion Na   0.000000000000000   0.000000000000000   0.479530000000000 1
ion Na   0.500000000000000   0.500000000000000   0.520470000000000 1
ion Na   0.000000000000000   0.000000000000000   0.561400000000000 1
ion Na   0.500000000000000   0.500000000000000   0.602340000000000 1
ion Na   0.000000000000000   0.000000000000000   0.643270000000000 1
ion Na   0.500000000000000   0.500000000000000   0.684210000000000 1
ion Na   0.000000000000000   0.000000000000000   0.725140000000000 1
ion Na   0.500000000000000   0.500000000000000   0.766080000000000 1

# Forces in Lattice coordinates:
force Na   0.000000000000000   0.000000000000000   0.023836196299484 1
force Na   0.000000000000000   0.000000000000000  -0.037753245041916 1
force Na  -0.000000000000000  -0.000000000000000  -0.033771865172899 1
force Na   0.000000000000000   0.000000000000000  -0.046079979987556 1
force Na  -0.000000000000000  -0.000000000000000  -0.012972462296135 1
force Na   0.000000000000000   0.000000000000000  -0.027340051658205 1
force Na  -0.000000000000000  -0.000000000000000   0.008289792192854 1
force Na   0.000000000000000  -0.000000000000000  -0.008289792192854 1
force Na   0.000000000000000   0.000000000000000   0.027340051658660 1
force Na  -0.000000000000000  -0.000000000000000   0.012972462296135 1
force Na   0.000000000000000   0.000000000000000   0.046079979986647 1
force Na  -0.000000000000000   0.000000000000000   0.033771865172899 1
force Na   0.000000000000000  -0.000000000000000   0.037753245041916 1
force Na   0.000000000000000   0.000000000000000  -0.023836196297666 1

# Energy components:
   Eewald =   -14884.3787472305484698
       EH =   -14431.6612204711564118
     Eloc =    28698.6561090504255844
      Enl =     -161.6826266074004934
   Epulay =       -0.0059819767938530
      Exc =      -83.6868609499905602
       KE =      278.3901822494869407
-------------------------------------
     Etot =     -584.3691459359772580
       TS =        0.0511667245043786
-------------------------------------
        F =     -584.4203126604816134

IonicMinimize: Iter:   0  F: -584.420312660481613  |grad|_K:  1.778e-04  t[s]:     66.34
IonicMinimize: None of the convergence criteria satisfied after 0 iterations.

#--- Lowdin population analysis ---
# oxidation-state Na +0.072 +0.047 +0.038 +0.049 +0.045 +0.045 +0.046 +0.046 +0.045 +0.045 +0.049 +0.038 +0.047 +0.072


Dumping 'X.fillings' ... done
Dumping 'X.wfns' ... done
Dumping 'X.ionpos' ... done
Dumping 'X.lattice' ... done
Dumping 'X.n' ... done
Dumping 'X.eigenvals' ... done
Dumping 'X.eigStats' ... 
	eMin: -2.309098 at state 5 ( [ +0.000000 +0.454545 +0.000000 ] spin 0 )
	HOMO: -0.116283 at state 13 ( [ +0.181818 +0.363636 +0.000000 ] spin 0 )
	mu  : -0.114959
	LUMO: -0.114641 at state 12 ( [ +0.181818 +0.272727 +0.000000 ] spin 0 )
	eMax: -0.004682 at state 11 ( [ +0.181818 +0.181818 +0.000000 ] spin 0 )
	HOMO-LUMO gap: +0.001641
	Optical gap  : +0.003975 at state 17 ( [ +0.272727 +0.454545 +0.000000 ] spin 0 )
Dumping 'X.dos' ... done.
End date and time: Thu Nov  9 00:41:53 2023  (Duration: 0-0:01:06.56)
Done!

*************** JDFTx 1.7.0  ***************

Start date and time: Thu Nov  9 00:41:56 2023
Executable jdftx with command-line: -m -i X.in -o X.out
Running on hosts (process indices):  ac0751 (0-20)
Divided in process groups (process indices):  0 (0)  1 (1)  2 (2)  3 (3)  4 (4)  5 (5)  6 (6)  7 (7)  8 (8)  9 (9)  10 (10)  11 (11)  12 (12)  13 (13)  14 (14)  15 (15)  16 (16)  17 (17)  18 (18)  19 (19)  20 (20)
Resource initialization completed at t[s]:      0.03
Run totals: 21 processes, 21 threads, 0 GPUs


Input parsed successfully to the following command list (including defaults):

basis kpoint-dependent
cache-projectors no
coords-type Lattice
core-overlap-check vector
coulomb-interaction Slab 001
coulomb-truncation-embed 0 0 0.5
davidson-band-ratio 1.1
density-of-states Etol 1.000000e-06 Esigma 0.000000e+00 \
		Complete \
	Total \
		Occupied \
	Total
dump End State IonicPositions Lattice ElecDensity CoreDensity EigStats DOS
dump Electronic State Forces
dump Ionic State IonicPositions Forces Lattice DOS
dump-interval Electronic 8
dump-interval Ionic 4
dump-name X.$var
elec-cutoff 20
elec-eigen-algo Davidson
elec-ex-corr gga-PBE
elec-smearing Fermi 0.0095
electronic-minimize  \
	dirUpdateScheme      FletcherReeves \
	linminMethod         DirUpdateRecommended \
	nIterations          2000 \
	history              15 \
	knormThreshold       0 \
	energyDiffThreshold  1e-07 \
	nEnergyDiff          2 \
	alphaTstart          1 \
	alphaTmin            1e-10 \
	updateTestStepSize   yes \
	alphaTreduceFactor   0.1 \
	alphaTincreaseFactor 3 \
	nAlphaAdjustMax      3 \
	wolfeEnergy          0.0001 \
	wolfeGradient        0.9 \
	fdTest               no
exchange-regularization WignerSeitzTruncated
fluid None
fluid-ex-corr (null) lda-PZ
fluid-gummel-loop 10 1.000000e-05
fluid-minimize  \
	dirUpdateScheme      PolakRibiere \
	linminMethod         DirUpdateRecommended \
	nIterations          100 \
	history              15 \
	knormThreshold       0 \
	energyDiffThreshold  0 \
	nEnergyDiff          2 \
	alphaTstart          1 \
	alphaTmin            1e-10 \
	updateTestStepSize   yes \
	alphaTreduceFactor   0.1 \
	alphaTincreaseFactor 3 \
	nAlphaAdjustMax      3 \
	wolfeEnergy          0.0001 \
	wolfeGradient        0.9 \
	fdTest               no
fluid-solvent H2O 55.338 ScalarEOS \
	epsBulk 78.4 \
	pMol 0.92466 \
	epsInf 1.77 \
	Pvap 1.06736e-10 \
	sigmaBulk 4.62e-05 \
	Rvdw 2.61727 \
	Res 1.42 \
	tauNuc 343133 \
	poleEl 15 7 1
forces-output-coords Positions
ion Na   0.000000000000000   0.000000000000000   0.233920000000000 1
ion Na   0.500000000000000   0.500000000000000   0.274860000000000 1
ion Na   0.000000000000000   0.000000000000000   0.315790000000000 1
ion Na   0.500000000000000   0.500000000000000   0.356730000000000 1
ion Na   0.000000000000000   0.000000000000000   0.397660000000000 1
ion Na   0.500000000000000   0.500000000000000   0.438600000000000 1
ion Na   0.000000000000000   0.000000000000000   0.479530000000000 1
ion Na   0.500000000000000   0.500000000000000   0.520470000000000 1
ion Na   0.000000000000000   0.000000000000000   0.561400000000000 1
ion Na   0.500000000000000   0.500000000000000   0.602340000000000 1
ion Na   0.000000000000000   0.000000000000000   0.643270000000000 1
ion Na   0.500000000000000   0.500000000000000   0.684210000000000 1
ion Na   0.000000000000000   0.000000000000000   0.725140000000000 1
ion Na   0.500000000000000   0.500000000000000   0.766080000000000 1
ion-species SG15/$ID_ONCV_PBE.upf
ion-width 0
ionic-minimize  \
	dirUpdateScheme      L-BFGS \
	linminMethod         DirUpdateRecommended \
	nIterations          0 \
	history              15 \
	knormThreshold       0.0001 \
	energyDiffThreshold  1e-06 \
	nEnergyDiff          2 \
	alphaTstart          1 \
	alphaTmin            1e-10 \
	updateTestStepSize   yes \
	alphaTreduceFactor   0.1 \
	alphaTincreaseFactor 3 \
	nAlphaAdjustMax      3 \
	wolfeEnergy          0.0001 \
	wolfeGradient        0.9 \
	fdTest               no
kpoint   0.000000000000   0.000000000000   0.000000000000  1.00000000000000
kpoint-folding 11 11 1 
latt-move-scale 1 1 1
latt-scale 1 1 1 
lattice  \
	   7.936714821600003   -0.000000000000000   -0.000000000000000  \
	   0.000000000000000    7.936714821600003   -0.000000000000000  \
	   0.000000000000000    0.000000000000000   96.942204134999997 
lattice-minimize  \
	dirUpdateScheme      L-BFGS \
	linminMethod         DirUpdateRecommended \
	nIterations          0 \
	history              15 \
	knormThreshold       0 \
	energyDiffThreshold  1e-06 \
	nEnergyDiff          2 \
	alphaTstart          1 \
	alphaTmin            1e-10 \
	updateTestStepSize   yes \
	alphaTreduceFactor   0.1 \
	alphaTincreaseFactor 3 \
	nAlphaAdjustMax      3 \
	wolfeEnergy          0.0001 \
	wolfeGradient        0.9 \
	fdTest               no
lcao-params -1 1e-06 0.0095
pcm-variant GLSSA13
spintype no-spin
subspace-rotation-factor 1 yes
symmetries automatic
symmetry-threshold 0.0001
wavefunction read X.wfns 70 10.000000



---------- Setting up symmetries ----------

Found 16 point-group symmetries of the bravais lattice
Found 16 space-group symmetries with basis
Applied RMS atom displacement 0 bohrs to make symmetries exact.

---------- Initializing the Grid ----------
R = 
[      7.93671            0            0  ]
[            0      7.93671            0  ]
[            0            0      96.9422  ]
unit cell volume = 6106.53
G =
[   0.791661          0          0  ]
[         -0   0.791661          0  ]
[          0         -0  0.0648137  ]
Minimum fftbox size, Smin = [  32  32  392  ]
Chosen fftbox size, S = [  32  32  392  ]

---------- Exchange Correlation functional ----------
Initalized PBE GGA exchange.
Initalized PBE GGA correlation.

---------- Setting up pseudopotentials ----------
Width of ionic core gaussian charges (only for fluid interactions / plotting) set to 0

Reading pseudopotential file '/net/software/testing/software/jdftx/1.7.0-foss-2021b-mkl/share/jdftx/pseudopotentials/SG15/Na_ONCV_PBE.upf':
  'Na' pseudopotential, 'PBE' functional
  Generated using ONCVPSP code by D. R. Hamann
  Author: Martin Schlipf and Francois Gygi  Date: 150915.
  9 valence electrons, 3 orbitals, 4 projectors, 1992 radial grid points, with lMax = 1
  Transforming local potential to a uniform radial grid of dG=0.02 with 1104 points.
  Transforming nonlocal projectors to a uniform radial grid of dG=0.02 with 432 points.
    2S    l: 0   occupation:  2.0   eigenvalue: -2.085640
    2P    l: 1   occupation:  6.0   eigenvalue: -1.053708
    3S    l: 0   occupation:  1.0   eigenvalue: -0.100838
  Transforming atomic orbitals to a uniform radial grid of dG=0.02 with 432 points.
  Core radius for overlap checks: 2.01 bohrs.
  Reading pulay file /net/software/testing/software/jdftx/1.7.0-foss-2021b-mkl/share/jdftx/pseudopotentials/SG15/Na_ONCV_PBE.pulay ... using dE_dnG = -2.946487e-03 computed for Ecut = 20.

Initialized 1 species with 14 total atoms.

Folded 1 k-points by 11x11x1 to 121 k-points.

---------- Setting up k-points, bands, fillings ----------
Reduced to 21 k-points under symmetry. 
Computing the number of bands and number of electrons
Calculating initial fillings.
nElectrons: 126.000000   nBands: 70   nStates: 21

----- Setting up reduced wavefunction bases (one per k-point) -----
average nbasis = 26085.149 , ideal nbasis = 26087.558

----- Initializing Supercell corresponding to k-point mesh -----
Lattice vector linear combinations in supercell:
[  11   0   0  ]
[   0  11   0  ]
[   0   0   1  ]
Supercell lattice vectors:
[  87.3039  0  0  ]
[  0  87.3039  0  ]
[  0  0  96.9422  ]

---------- Setting up coulomb interaction ----------
Setting up double-sized grid for truncated Coulomb potentials:
R = 
[      7.93671            0            0  ]
[            0      7.93671            0  ]
[            0            0      193.884  ]
unit cell volume = 12213.1
G =
[   0.791661          0          0  ]
[         -0   0.791661          0  ]
[          0         -0  0.0324069  ]
Chosen fftbox size, S = [  32  32  784  ]
Integer grid location selected as the embedding center:
   Grid: [  0  0  196  ]
   Lattice: [  0  0  0.5  ]
   Cartesian: [  0  0  48.4711  ]
Constructing Wigner-Seitz cell: 6 faces (6 quadrilaterals, 0 hexagons)
Range-separation parameter for embedded mesh potentials due to point charges: 0.628283 bohrs.
Initialized slab truncation along lattice direction 001

---------- Setting up 2D ewald sum ----------
Optimum gaussian width for ewald sums = 4.734710 bohr.
Real space sums over 225 unit cells with max indices [  7  7  0  ]
Reciprocal space sums over 81 terms with max indices [  4  4  0  ]

---------- Allocating electronic variables ----------
Initializing wave functions:  reading from 'X.wfns'


---- Citations for features of the code used in this run ----

   Software package:
      R. Sundararaman, K. Letchworth-Weaver, K.A. Schwarz, D. Gunceler, Y. Ozhabes and T.A. Arias, 'JDFTx: software for joint density-functional theory', SoftwareX 6, 278 (2017)

   gga-PBE exchange-correlation functional:
      J.P. Perdew, K. Burke and M. Ernzerhof, Phys. Rev. Lett. 77, 3865 (1996)

   Pseudopotentials:
      M Schlipf and F Gygi, Comput. Phys. Commun. 196, 36 (2015)

   Truncated Coulomb potentials:
      R. Sundararaman and T.A. Arias, Phys. Rev. B 87, 165122 (2013)

   Total energy minimization with Auxiliary Hamiltonian:
      C. Freysoldt, S. Boeck, and J. Neugebauer, Phys. Rev. B 79, 241103(R) (2009)

   Linear-tetrahedron sampling for density of states:
      G. Lehmann and M. Taut, Phys. status solidi (b) 54, 469 (1972)

This list may not be complete. Please suggest additional citations or
report any other bugs at https://github.com/shankar1729/jdftx/issues

Initialization completed successfully at t[s]:      0.78


Setting the auxilliary hamiltonian equal to the subspace hamiltonian.

-------- Electronic minimization -----------
	FillingsUpdate:  mu: -0.053685101  nElectrons: 126.000000
ElecMinimize: Iter:   0  F: -584.379235998662466  |grad|_K:  1.061e-03  alpha:  1.000e+00
	FillingsUpdate:  mu: -0.642974107  nElectrons: 126.000000
	SubspaceRotationAdjust: set factor to 0.736
ElecMinimize: Iter:   1  F: -595.017987303083942  |grad|_K:  5.339e-04  alpha:  2.623e-01  linmin:  9.942e-03  t[s]:     10.06
	FillingsUpdate:  mu: +0.244634605  nElectrons: 126.000000
	SubspaceRotationAdjust: set factor to 0.368
ElecMinimize: Iter:   2  F: -595.429117153926768  |grad|_K:  3.567e-04  alpha:  5.029e-02  linmin:  1.662e-03  t[s]:     14.08
ElecMinimize: 	Predicted alpha/alphaT>3.000000, increasing alphaT to 1.508666e-01.
	FillingsUpdate:  mu: +0.178739043  nElectrons: 126.000000
	SubspaceRotationAdjust: set factor to 0.233
ElecMinimize: Iter:   3  F: -596.224489656692526  |grad|_K:  1.589e-04  alpha:  2.056e-01  linmin: -6.854e-05  t[s]:     19.41
	FillingsUpdate:  mu: -0.117299449  nElectrons: 126.000000
	SubspaceRotationAdjust: set factor to 0.162
ElecMinimize: Iter:   4  F: -596.303064082561605  |grad|_K:  6.098e-05  alpha:  7.668e-02  linmin: -1.102e-03  t[s]:     23.42
	FillingsUpdate:  mu: -0.195902901  nElectrons: 126.000000
	SubspaceRotationAdjust: set factor to 0.112
	SubspaceRotationAdjust: resetting CG because factor has changed by 0.112452
ElecMinimize: 	State modified externally: resetting search direction.
ElecMinimize: Iter:   5  F: -596.333667783807414  |grad|_K:  3.715e-05  alpha:  2.071e-01
	FillingsUpdate:  mu: -0.080957881  nElectrons: 126.000000
	SubspaceRotationAdjust: set factor to 0.113
ElecMinimize: Iter:   6  F: -596.347267763873333  |grad|_K:  1.420e-05  alpha:  2.573e-01  linmin:  3.846e-04  t[s]:     33.78
	FillingsUpdate:  mu: -0.093067844  nElectrons: 126.000000

Dumping 'X.fillings' ... done
Dumping 'X.wfns' ... done
Dumping 'X.force' ... done
Dumping 'X.eigenvals' ... done
	SubspaceRotationAdjust: set factor to 0.14
ElecMinimize: Iter:   7  F: -596.351810300841180  |grad|_K:  1.247e-05  alpha:  5.913e-01  linmin: -4.409e-06  t[s]:     39.03
	FillingsUpdate:  mu: -0.109413630  nElectrons: 126.000000
	SubspaceRotationAdjust: set factor to 0.16
ElecMinimize: Iter:   8  F: -596.355435265019651  |grad|_K:  1.221e-05  alpha:  6.070e-01  linmin:  2.493e-05  t[s]:     43.09
	FillingsUpdate:  mu: -0.086866995  nElectrons: 126.000000
	SubspaceRotationAdjust: set factor to 0.163
ElecMinimize: Iter:   9  F: -596.359764789764540  |grad|_K:  1.472e-05  alpha:  7.636e-01  linmin:  8.539e-05  t[s]:     47.30
	FillingsUpdate:  mu: -0.118336714  nElectrons: 126.000000
	SubspaceRotationAdjust: set factor to 0.144
ElecMinimize: Iter:  10  F: -596.363298978253738  |grad|_K:  1.173e-05  alpha:  4.098e-01  linmin: -1.257e-04  t[s]:     51.29
	FillingsUpdate:  mu: -0.094388840  nElectrons: 126.000000
	SubspaceRotationAdjust: set factor to 0.114
ElecMinimize: Iter:  11  F: -596.365326189954885  |grad|_K:  8.991e-06  alpha:  3.732e-01  linmin:  7.023e-05  t[s]:     55.33
	FillingsUpdate:  mu: -0.110429632  nElectrons: 126.000000
	SubspaceRotationAdjust: set factor to 0.0995
ElecMinimize: Iter:  12  F: -596.366603632426859  |grad|_K:  7.517e-06  alpha:  4.188e-01  linmin:  8.538e-05  t[s]:     59.36
	FillingsUpdate:  mu: -0.107749011  nElectrons: 126.000000
	SubspaceRotationAdjust: set factor to 0.111
ElecMinimize: Iter:  13  F: -596.367573413667401  |grad|_K:  5.308e-06  alpha:  4.554e-01  linmin:  3.791e-05  t[s]:     63.40
	FillingsUpdate:  mu: -0.097021914  nElectrons: 126.000000
	SubspaceRotationAdjust: set factor to 0.0962
ElecMinimize: Iter:  14  F: -596.368004502352960  |grad|_K:  4.257e-06  alpha:  4.006e-01  linmin:  1.546e-05  t[s]:     67.43
	FillingsUpdate:  mu: -0.104534879  nElectrons: 126.000000

Dumping 'X.fillings' ... done
Dumping 'X.wfns' ... done
Dumping 'X.force' ... done
Dumping 'X.eigenvals' ... done
	SubspaceRotationAdjust: set factor to 0.0811
ElecMinimize: Iter:  15  F: -596.368300903353202  |grad|_K:  3.108e-06  alpha:  4.270e-01  linmin:  3.803e-05  t[s]:     71.80
	FillingsUpdate:  mu: -0.102607189  nElectrons: 126.000000
	SubspaceRotationAdjust: set factor to 0.0907
ElecMinimize: Iter:  16  F: -596.368457597997804  |grad|_K:  2.324e-06  alpha:  4.239e-01  linmin:  5.629e-07  t[s]:     75.83
	FillingsUpdate:  mu: -0.099322041  nElectrons: 126.000000
	SubspaceRotationAdjust: set factor to 0.0933
ElecMinimize: Iter:  17  F: -596.368550566691965  |grad|_K:  2.032e-06  alpha:  4.485e-01  linmin:  1.642e-06  t[s]:     79.88
	FillingsUpdate:  mu: -0.101645757  nElectrons: 126.000000
	SubspaceRotationAdjust: set factor to 0.103
ElecMinimize: Iter:  18  F: -596.368627335069050  |grad|_K:  1.632e-06  alpha:  4.847e-01  linmin:  6.986e-07  t[s]:     83.92
	FillingsUpdate:  mu: -0.101545502  nElectrons: 126.000000
	SubspaceRotationAdjust: set factor to 0.122
ElecMinimize: Iter:  19  F: -596.368679201869440  |grad|_K:  1.467e-06  alpha:  5.073e-01  linmin:  6.803e-07  t[s]:     87.95
	FillingsUpdate:  mu: -0.099959325  nElectrons: 126.000000
	SubspaceRotationAdjust: set factor to 0.137
ElecMinimize: Iter:  20  F: -596.368723404304433  |grad|_K:  1.489e-06  alpha:  5.352e-01  linmin: -1.548e-06  t[s]:     91.99
	FillingsUpdate:  mu: -0.102209371  nElectrons: 126.000000
	SubspaceRotationAdjust: set factor to 0.146
ElecMinimize: Iter:  21  F: -596.368762279909788  |grad|_K:  1.343e-06  alpha:  4.571e-01  linmin: -2.124e-06  t[s]:     96.02
	FillingsUpdate:  mu: -0.100000773  nElectrons: 126.000000
	SubspaceRotationAdjust: set factor to 0.147
ElecMinimize: Iter:  22  F: -596.368796989837847  |grad|_K:  1.346e-06  alpha:  5.015e-01  linmin: -8.140e-06  t[s]:    100.06
	FillingsUpdate:  mu: -0.102151425  nElectrons: 126.000000

Dumping 'X.fillings' ... done
Dumping 'X.wfns' ... done
Dumping 'X.force' ... done
Dumping 'X.eigenvals' ... done
	SubspaceRotationAdjust: set factor to 0.141
ElecMinimize: Iter:  23  F: -596.368830048891141  |grad|_K:  1.261e-06  alpha:  4.746e-01  linmin: -4.227e-06  t[s]:    104.49
	FillingsUpdate:  mu: -0.100628120  nElectrons: 126.000000
	SubspaceRotationAdjust: set factor to 0.133
ElecMinimize: Iter:  24  F: -596.368856710164664  |grad|_K:  1.046e-06  alpha:  4.365e-01  linmin: -5.010e-06  t[s]:    108.54
	FillingsUpdate:  mu: -0.102015200  nElectrons: 126.000000
	SubspaceRotationAdjust: set factor to 0.124
ElecMinimize: Iter:  25  F: -596.368876841555789  |grad|_K:  9.577e-07  alpha:  4.792e-01  linmin: -3.628e-06  t[s]:    112.58
	FillingsUpdate:  mu: -0.100920253  nElectrons: 126.000000
	SubspaceRotationAdjust: set factor to 0.115
ElecMinimize: Iter:  26  F: -596.368892349982389  |grad|_K:  7.883e-07  alpha:  4.403e-01  linmin: -2.877e-06  t[s]:    116.61
	FillingsUpdate:  mu: -0.101559015  nElectrons: 126.000000
	SubspaceRotationAdjust: set factor to 0.115
ElecMinimize: Iter:  27  F: -596.368903427355121  |grad|_K:  6.646e-07  alpha:  4.643e-01  linmin: -1.772e-06  t[s]:    120.65
	FillingsUpdate:  mu: -0.101451664  nElectrons: 126.000000
	SubspaceRotationAdjust: set factor to 0.122
ElecMinimize: Iter:  28  F: -596.368912193352344  |grad|_K:  6.112e-07  alpha:  5.171e-01  linmin: -7.446e-07  t[s]:    124.68
	FillingsUpdate:  mu: -0.101045981  nElectrons: 126.000000
	SubspaceRotationAdjust: set factor to 0.132
ElecMinimize: Iter:  29  F: -596.368918963881129  |grad|_K:  5.336e-07  alpha:  4.723e-01  linmin: -4.354e-06  t[s]:    128.71
	FillingsUpdate:  mu: -0.101752236  nElectrons: 126.000000
	SubspaceRotationAdjust: set factor to 0.14
ElecMinimize: Iter:  30  F: -596.368924472478284  |grad|_K:  5.122e-07  alpha:  5.040e-01  linmin: -8.881e-06  t[s]:    132.75
	FillingsUpdate:  mu: -0.101059606  nElectrons: 126.000000

Dumping 'X.fillings' ... done
Dumping 'X.wfns' ... done
Dumping 'X.force' ... done
Dumping 'X.eigenvals' ... done
	SubspaceRotationAdjust: set factor to 0.148
ElecMinimize: Iter:  31  F: -596.368929899806403  |grad|_K:  5.207e-07  alpha:  5.388e-01  linmin: -1.335e-05  t[s]:    137.15
	FillingsUpdate:  mu: -0.101794948  nElectrons: 126.000000
	SubspaceRotationAdjust: set factor to 0.155
ElecMinimize: Iter:  32  F: -596.368935085721546  |grad|_K:  5.231e-07  alpha:  4.981e-01  linmin: -1.295e-05  t[s]:    141.19
	FillingsUpdate:  mu: -0.100984141  nElectrons: 126.000000
	SubspaceRotationAdjust: set factor to 0.155
ElecMinimize: Iter:  33  F: -596.368941091838337  |grad|_K:  5.772e-07  alpha:  5.710e-01  linmin: -2.377e-05  t[s]:    145.20
	FillingsUpdate:  mu: -0.102092325  nElectrons: 126.000000
	SubspaceRotationAdjust: set factor to 0.142
ElecMinimize: Iter:  34  F: -596.368948174458751  |grad|_K:  6.571e-07  alpha:  5.521e-01  linmin: -8.842e-06  t[s]:    149.22
	FillingsUpdate:  mu: -0.100657738  nElectrons: 126.000000
	SubspaceRotationAdjust: set factor to 0.119
ElecMinimize: Iter:  35  F: -596.368955599961510  |grad|_K:  6.591e-07  alpha:  4.346e-01  linmin:  6.995e-05  t[s]:    153.26
	FillingsUpdate:  mu: -0.101256327  nElectrons: 126.000000
	SubspaceRotationAdjust: set factor to 0.121
ElecMinimize: Iter:  36  F: -596.368961080215058  |grad|_K:  5.510e-07  alpha:  3.072e-01  linmin:  2.223e-05  t[s]:    157.31
	FillingsUpdate:  mu: -0.101635259  nElectrons: 126.000000
	SubspaceRotationAdjust: set factor to 0.122
ElecMinimize: Iter:  37  F: -596.368963846296538  |grad|_K:  4.916e-07  alpha:  2.305e-01  linmin:  1.061e-04  t[s]:    161.33
	FillingsUpdate:  mu: -0.101444099  nElectrons: 126.000000
	SubspaceRotationAdjust: set factor to 0.137
ElecMinimize: Iter:  38  F: -596.368965638229952  |grad|_K:  4.482e-07  alpha:  1.939e-01  linmin:  1.517e-04  t[s]:    165.34
	FillingsUpdate:  mu: -0.101116862  nElectrons: 126.000000

Dumping 'X.fillings' ... done
Dumping 'X.wfns' ... done
Dumping 'X.force' ... done
Dumping 'X.eigenvals' ... done
	SubspaceRotationAdjust: set factor to 0.155
ElecMinimize: Iter:  39  F: -596.368967008171126  |grad|_K:  4.379e-07  alpha:  1.803e-01  linmin:  1.599e-04  t[s]:    170.11
	FillingsUpdate:  mu: -0.101056870  nElectrons: 126.000000
	SubspaceRotationAdjust: set factor to 0.201
ElecMinimize: Iter:  40  F: -596.368968285524375  |grad|_K:  4.443e-07  alpha:  1.760e-01  linmin:  1.751e-04  t[s]:    174.12
	FillingsUpdate:  mu: -0.101340505  nElectrons: 126.000000
	SubspaceRotationAdjust: set factor to 0.22
ElecMinimize: Iter:  41  F: -596.368969483889828  |grad|_K:  4.643e-07  alpha:  1.599e-01  linmin:  1.149e-04  t[s]:    178.18
	FillingsUpdate:  mu: -0.101607196  nElectrons: 126.000000
	SubspaceRotationAdjust: set factor to 0.196
ElecMinimize: Iter:  42  F: -596.368970781568919  |grad|_K:  5.093e-07  alpha:  1.578e-01  linmin:  1.137e-04  t[s]:    182.17
	FillingsUpdate:  mu: -0.101430363  nElectrons: 126.000000
	SubspaceRotationAdjust: set factor to 0.189
ElecMinimize: Iter:  43  F: -596.368972197044741  |grad|_K:  4.962e-07  alpha:  1.428e-01  linmin:  4.195e-05  t[s]:    186.19
	FillingsUpdate:  mu: -0.101112206  nElectrons: 126.000000
	SubspaceRotationAdjust: set factor to 0.181
ElecMinimize: Iter:  44  F: -596.368973660208326  |grad|_K:  5.167e-07  alpha:  1.551e-01  linmin:  5.237e-06  t[s]:    190.22
	FillingsUpdate:  mu: -0.101169991  nElectrons: 126.000000
	SubspaceRotationAdjust: set factor to 0.197
ElecMinimize: Iter:  45  F: -596.368975284917269  |grad|_K:  5.173e-07  alpha:  1.587e-01  linmin: -1.754e-05  t[s]:    194.25
	FillingsUpdate:  mu: -0.101534715  nElectrons: 126.000000
	SubspaceRotationAdjust: set factor to 0.232
ElecMinimize: Iter:  46  F: -596.368976848320813  |grad|_K:  5.242e-07  alpha:  1.521e-01  linmin: -2.353e-05  t[s]:    198.29
	FillingsUpdate:  mu: -0.101659944  nElectrons: 126.000000

Dumping 'X.fillings' ... done
Dumping 'X.wfns' ... done
Dumping 'X.force' ... done
Dumping 'X.eigenvals' ... done
	SubspaceRotationAdjust: set factor to 0.273
ElecMinimize: Iter:  47  F: -596.368978485050093  |grad|_K:  5.497e-07  alpha:  1.548e-01  linmin: -4.941e-05  t[s]:    202.67
	FillingsUpdate:  mu: -0.101302124  nElectrons: 126.000000
	SubspaceRotationAdjust: set factor to 0.361
ElecMinimize: Iter:  48  F: -596.368980010652990  |grad|_K:  5.355e-07  alpha:  1.311e-01  linmin: -4.309e-05  t[s]:    206.70
	FillingsUpdate:  mu: -0.101060016  nElectrons: 126.000000
	SubspaceRotationAdjust: set factor to 0.455
ElecMinimize: Iter:  49  F: -596.368981524002493  |grad|_K:  5.640e-07  alpha:  1.366e-01  linmin: -9.248e-05  t[s]:    210.73
	FillingsUpdate:  mu: -0.101447608  nElectrons: 126.000000
	SubspaceRotationAdjust: set factor to 0.532
ElecMinimize: Iter:  50  F: -596.368982892117174  |grad|_K:  5.279e-07  alpha:  1.113e-01  linmin: -5.127e-05  t[s]:    214.76
	FillingsUpdate:  mu: -0.101474156  nElectrons: 126.000000
	SubspaceRotationAdjust: set factor to 0.634
ElecMinimize: Iter:  51  F: -596.368984295412702  |grad|_K:  5.047e-07  alpha:  1.291e-01  linmin: -1.704e-04  t[s]:    218.79
	FillingsUpdate:  mu: -0.100972583  nElectrons: 126.000000
	SubspaceRotationAdjust: set factor to 0.603
ElecMinimize: Iter:  52  F: -596.368985476485136  |grad|_K:  5.393e-07  alpha:  1.176e-01  linmin: -9.673e-05  t[s]:    222.81
	FillingsUpdate:  mu: -0.101543962  nElectrons: 126.000000
	SubspaceRotationAdjust: set factor to 0.485
ElecMinimize: Iter:  53  F: -596.368986508783337  |grad|_K:  4.879e-07  alpha:  9.186e-02  linmin: -4.731e-05  t[s]:    226.84
	FillingsUpdate:  mu: -0.101125699  nElectrons: 126.000000
	SubspaceRotationAdjust: set factor to 0.435
ElecMinimize: Iter:  54  F: -596.368987830376909  |grad|_K:  4.463e-07  alpha:  1.412e-01  linmin: -2.566e-04  t[s]:    230.87
	FillingsUpdate:  mu: -0.101418588  nElectrons: 126.000000

Dumping 'X.fillings' ... done
Dumping 'X.wfns' ... done
Dumping 'X.force' ... done
Dumping 'X.eigenvals' ... done
	SubspaceRotationAdjust: set factor to 0.428
ElecMinimize: Iter:  55  F: -596.368989491974276  |grad|_K:  4.460e-07  alpha:  2.064e-01  linmin: -2.660e-04  t[s]:    235.22
	FillingsUpdate:  mu: -0.100970207  nElectrons: 126.000000
	SubspaceRotationAdjust: set factor to 0.419
ElecMinimize: Iter:  56  F: -596.368991253679155  |grad|_K:  4.894e-07  alpha:  2.225e-01  linmin: -1.191e-04  t[s]:    239.24
	FillingsUpdate:  mu: -0.101687357  nElectrons: 126.000000
	SubspaceRotationAdjust: set factor to 0.372
ElecMinimize: Iter:  57  F: -596.368992724335385  |grad|_K:  5.219e-07  alpha:  1.583e-01  linmin: -8.030e-06  t[s]:    243.27
	FillingsUpdate:  mu: -0.101105492  nElectrons: 126.000000
	SubspaceRotationAdjust: set factor to 0.363
ElecMinimize: Iter:  58  F: -596.368994339798519  |grad|_K:  4.558e-07  alpha:  1.544e-01  linmin: -1.908e-05  t[s]:    247.30
	FillingsUpdate:  mu: -0.101308050  nElectrons: 126.000000
	SubspaceRotationAdjust: set factor to 0.425
ElecMinimize: Iter:  59  F: -596.368996160005054  |grad|_K:  4.291e-07  alpha:  2.280e-01  linmin: -1.166e-06  t[s]:    251.32
	FillingsUpdate:  mu: -0.101433411  nElectrons: 126.000000
	SubspaceRotationAdjust: set factor to 0.503
ElecMinimize: Iter:  60  F: -596.368997906884374  |grad|_K:  4.362e-07  alpha:  2.472e-01  linmin: -8.343e-07  t[s]:    255.35
	FillingsUpdate:  mu: -0.100868049  nElectrons: 126.000000
	SubspaceRotationAdjust: set factor to 0.511
ElecMinimize: Iter:  61  F: -596.368999308484376  |grad|_K:  5.124e-07  alpha:  1.918e-01  linmin:  1.861e-06  t[s]:    259.42
	FillingsUpdate:  mu: -0.101563659  nElectrons: 126.000000
	SubspaceRotationAdjust: set factor to 0.448
ElecMinimize: Iter:  62  F: -596.369000362745737  |grad|_K:  4.645e-07  alpha:  1.046e-01  linmin: -3.567e-06  t[s]:    263.44
	FillingsUpdate:  mu: -0.101140604  nElectrons: 126.000000

Dumping 'X.fillings' ... done
Dumping 'X.wfns' ... done
Dumping 'X.force' ... done
Dumping 'X.eigenvals' ... done
	SubspaceRotationAdjust: set factor to 0.471
ElecMinimize: Iter:  63  F: -596.369001778403685  |grad|_K:  4.003e-07  alpha:  1.721e-01  linmin:  1.077e-04  t[s]:    267.80
	FillingsUpdate:  mu: -0.101486424  nElectrons: 126.000000
	SubspaceRotationAdjust: set factor to 0.489
ElecMinimize: Iter:  64  F: -596.369003039108179  |grad|_K:  3.855e-07  alpha:  2.099e-01  linmin:  1.706e-04  t[s]:    271.83
	FillingsUpdate:  mu: -0.101067494  nElectrons: 126.000000
	SubspaceRotationAdjust: set factor to 0.442
ElecMinimize: Iter:  65  F: -596.369003894721914  |grad|_K:  3.988e-07  alpha:  1.508e-01  linmin:  3.208e-05  t[s]:    275.86
	FillingsUpdate:  mu: -0.101498203  nElectrons: 126.000000
	SubspaceRotationAdjust: set factor to 0.38
ElecMinimize: Iter:  66  F: -596.369004557825292  |grad|_K:  3.391e-07  alpha:  1.074e-01  linmin:  2.099e-05  t[s]:    279.88
	FillingsUpdate:  mu: -0.101434590  nElectrons: 126.000000
	SubspaceRotationAdjust: set factor to 0.404
ElecMinimize: Iter:  67  F: -596.369005196478838  |grad|_K:  3.100e-07  alpha:  1.475e-01  linmin:  3.753e-04  t[s]:    283.90
	FillingsUpdate:  mu: -0.101242358  nElectrons: 126.000000
	SubspaceRotationAdjust: set factor to 0.413
ElecMinimize: Iter:  68  F: -596.369005643632022  |grad|_K:  3.193e-07  alpha:  1.263e-01  linmin:  1.160e-04  t[s]:    287.92
	FillingsUpdate:  mu: -0.101423358  nElectrons: 126.000000
	SubspaceRotationAdjust: set factor to 0.47
ElecMinimize: Iter:  69  F: -596.369006083327122  |grad|_K:  3.025e-07  alpha:  1.136e-01  linmin:  9.897e-05  t[s]:    291.95
	FillingsUpdate:  mu: -0.101549466  nElectrons: 126.000000
	SubspaceRotationAdjust: set factor to 0.581
ElecMinimize: Iter:  70  F: -596.369006525121335  |grad|_K:  3.284e-07  alpha:  1.273e-01  linmin:  1.271e-04  t[s]:    295.98
	FillingsUpdate:  mu: -0.101313448  nElectrons: 126.000000

Dumping 'X.fillings' ... done
Dumping 'X.wfns' ... done
Dumping 'X.force' ... done
Dumping 'X.eigenvals' ... done
	SubspaceRotationAdjust: set factor to 0.628
ElecMinimize: Iter:  71  F: -596.369006943857698  |grad|_K:  3.484e-07  alpha:  1.020e-01  linmin:  3.286e-05  t[s]:    300.39
	FillingsUpdate:  mu: -0.101356668  nElectrons: 126.000000
	SubspaceRotationAdjust: set factor to 0.633
ElecMinimize: Iter:  72  F: -596.369007460480248  |grad|_K:  3.626e-07  alpha:  1.114e-01  linmin:  4.984e-05  t[s]:    304.42
	FillingsUpdate:  mu: -0.101554044  nElectrons: 126.000000
	SubspaceRotationAdjust: set factor to 0.57
ElecMinimize: Iter:  73  F: -596.369007975149430  |grad|_K:  3.936e-07  alpha:  1.026e-01  linmin:  1.884e-05  t[s]:    308.44
	FillingsUpdate:  mu: -0.101271494  nElectrons: 126.000000
	SubspaceRotationAdjust: set factor to 0.624
ElecMinimize: Iter:  74  F: -596.369008475590931  |grad|_K:  3.643e-07  alpha:  8.428e-02  linmin:  6.097e-06  t[s]:    312.47
	FillingsUpdate:  mu: -0.101277529  nElectrons: 126.000000
	SubspaceRotationAdjust: set factor to 0.768
ElecMinimize: Iter:  75  F: -596.369009012929951  |grad|_K:  3.548e-07  alpha:  1.054e-01  linmin: -2.486e-05  t[s]:    316.56
	FillingsUpdate:  mu: -0.101503182  nElectrons: 126.000000
	SubspaceRotationAdjust: set factor to 0.825
ElecMinimize: Iter:  76  F: -596.369009458721848  |grad|_K:  3.778e-07  alpha:  9.204e-02  linmin: -1.376e-05  t[s]:    320.59
	FillingsUpdate:  mu: -0.101228812  nElectrons: 126.000000
	SubspaceRotationAdjust: set factor to 0.963
	SubspaceRotationAdjust: resetting CG because factor has changed by 8.5638
ElecMinimize: 	State modified externally: resetting search direction.
ElecMinimize: Iter:  77  F: -596.369009840290573  |grad|_K:  3.511e-07  alpha:  6.980e-02
	FillingsUpdate:  mu: -0.102134443  nElectrons: 126.000000
	SubspaceRotationAdjust: set factor to 0.521
ElecMinimize: Iter:  78  F: -596.369010674045398  |grad|_K:  8.800e-07  alpha:  1.760e-01  linmin: -4.790e-05  t[s]:    330.97
	FillingsUpdate:  mu: -0.101272229  nElectrons: 126.000000

Dumping 'X.fillings' ... done
Dumping 'X.wfns' ... done
Dumping 'X.force' ... done
Dumping 'X.eigenvals' ... done
	SubspaceRotationAdjust: set factor to 0.326
ElecMinimize: Iter:  79  F: -596.369013720943940  |grad|_K:  3.842e-07  alpha:  1.037e-01  linmin:  3.972e-05  t[s]:    335.34
ElecMinimize: 	Predicted alpha/alphaT>3.000000, increasing alphaT to 3.111312e-01.
	FillingsUpdate:  mu: -0.101604580  nElectrons: 126.000000
	SubspaceRotationAdjust: set factor to 0.272
ElecMinimize: Iter:  80  F: -596.369015789565424  |grad|_K:  2.567e-07  alpha:  3.659e-01  linmin: -1.605e-04  t[s]:    340.67
	FillingsUpdate:  mu: -0.100963771  nElectrons: 126.000000
	SubspaceRotationAdjust: set factor to 0.188
ElecMinimize: Iter:  81  F: -596.369016257683711  |grad|_K:  2.826e-07  alpha:  1.835e-01  linmin: -1.165e-05  t[s]:    344.67
	FillingsUpdate:  mu: -0.101365026  nElectrons: 126.000000
	SubspaceRotationAdjust: set factor to 0.193
ElecMinimize: Iter:  82  F: -596.369016957630265  |grad|_K:  1.954e-07  alpha:  2.283e-01  linmin: -2.273e-05  t[s]:    348.69
	FillingsUpdate:  mu: -0.101725772  nElectrons: 126.000000
	SubspaceRotationAdjust: set factor to 0.155
ElecMinimize: Iter:  83  F: -596.369017654836966  |grad|_K:  2.399e-07  alpha:  4.774e-01  linmin:  2.108e-04  t[s]:    352.69
	FillingsUpdate:  mu: -0.101105134  nElectrons: 126.000000
	SubspaceRotationAdjust: set factor to 0.105
	SubspaceRotationAdjust: resetting CG because factor has changed by 0.109036
ElecMinimize: 	State modified externally: resetting search direction.
ElecMinimize: Iter:  84  F: -596.369018120313399  |grad|_K:  1.887e-07  alpha:  2.115e-01
	FillingsUpdate:  mu: -0.101421852  nElectrons: 126.000000
	SubspaceRotationAdjust: set factor to 0.2
ElecMinimize: Iter:  85  F: -596.369018457039260  |grad|_K:  1.116e-07  alpha:  2.463e-01  linmin: -8.904e-06  t[s]:    363.03
ElecMinimize: 	Predicted alpha/alphaT>3.000000, increasing alphaT to 7.389741e-01.
	FillingsUpdate:  mu: -0.101308865  nElectrons: 126.000000
	SubspaceRotationAdjust: set factor to 0.206
ElecMinimize: Iter:  86  F: -596.369018896840771  |grad|_K:  1.553e-07  alpha:  9.195e-01  linmin: -1.146e-05  t[s]:    368.24
	FillingsUpdate:  mu: -0.101422044  nElectrons: 126.000000

Dumping 'X.fillings' ... done
Dumping 'X.wfns' ... done
Dumping 'X.force' ... done
Dumping 'X.eigenvals' ... done
	SubspaceRotationAdjust: set factor to 0.209
ElecMinimize: Iter:  87  F: -596.369019754203691  |grad|_K:  2.126e-07  alpha:  9.256e-01  linmin:  2.635e-05  t[s]:    372.63
	FillingsUpdate:  mu: -0.101023376  nElectrons: 126.000000
	SubspaceRotationAdjust: set factor to 0.194
ElecMinimize: Iter:  88  F: -596.369021070972735  |grad|_K:  2.523e-07  alpha:  7.562e-01  linmin:  9.707e-05  t[s]:    376.66
	FillingsUpdate:  mu: -0.101626606  nElectrons: 126.000000
	SubspaceRotationAdjust: set factor to 0.125
ElecMinimize: Iter:  89  F: -596.369021564464333  |grad|_K:  2.065e-07  alpha:  2.024e-01  linmin: -7.163e-05  t[s]:    380.69
	FillingsUpdate:  mu: -0.101275299  nElectrons: 126.000000
	SubspaceRotationAdjust: set factor to 0.118
ElecMinimize: Iter:  90  F: -596.369022188494341  |grad|_K:  1.965e-07  alpha:  3.806e-01  linmin:  6.114e-05  t[s]:    384.75
	FillingsUpdate:  mu: -0.101076680  nElectrons: 126.000000
	SubspaceRotationAdjust: set factor to 0.131
ElecMinimize: Iter:  91  F: -596.369022905902966  |grad|_K:  1.963e-07  alpha:  4.876e-01  linmin:  5.420e-05  t[s]:    388.78
	FillingsUpdate:  mu: -0.101615824  nElectrons: 126.000000
	SubspaceRotationAdjust: set factor to 0.114
ElecMinimize: Iter:  92  F: -596.369023610641193  |grad|_K:  2.189e-07  alpha:  4.783e-01  linmin:  1.730e-05  t[s]:    392.81
	FillingsUpdate:  mu: -0.101212893  nElectrons: 126.000000
	SubspaceRotationAdjust: set factor to 0.118
ElecMinimize: Iter:  93  F: -596.369024421903077  |grad|_K:  2.012e-07  alpha:  4.417e-01  linmin:  1.195e-05  t[s]:    396.88
	FillingsUpdate:  mu: -0.101131115  nElectrons: 126.000000
	SubspaceRotationAdjust: set factor to 0.14
ElecMinimize: Iter:  94  F: -596.369025193111497  |grad|_K:  2.205e-07  alpha:  4.968e-01  linmin:  1.389e-05  t[s]:    400.90
	FillingsUpdate:  mu: -0.101842625  nElectrons: 126.000000

Dumping 'X.fillings' ... done
Dumping 'X.wfns' ... done
Dumping 'X.force' ... done
Dumping 'X.eigenvals' ... done
	SubspaceRotationAdjust: set factor to 0.135
ElecMinimize: Iter:  95  F: -596.369026483076709  |grad|_K:  3.457e-07  alpha:  7.050e-01  linmin:  2.407e-04  t[s]:    405.31
	FillingsUpdate:  mu: -0.101560293  nElectrons: 126.000000
	SubspaceRotationAdjust: set factor to 0.184
ElecMinimize: Iter:  96  F: -596.369027650040266  |grad|_K:  2.910e-07  alpha:  1.825e-01  linmin: -2.148e-03  t[s]:    409.37
	FillingsUpdate:  mu: -0.100906473  nElectrons: 126.000000
	SubspaceRotationAdjust: set factor to 0.168
ElecMinimize: Iter:  97  F: -596.369028703065624  |grad|_K:  3.194e-07  alpha:  2.347e-01  linmin:  6.606e-04  t[s]:    413.40
	FillingsUpdate:  mu: -0.101037293  nElectrons: 126.000000
	SubspaceRotationAdjust: set factor to 0.204
ElecMinimize: Iter:  98  F: -596.369029128067268  |grad|_K:  2.842e-07  alpha:  1.097e-01  linmin: -3.340e-04  t[s]:    417.41
	FillingsUpdate:  mu: -0.101402861  nElectrons: 126.000000
	SubspaceRotationAdjust: set factor to 0.251
ElecMinimize: Iter:  99  F: -596.369029428506451  |grad|_K:  2.328e-07  alpha:  9.097e-02  linmin:  8.252e-05  t[s]:    421.44
	FillingsUpdate:  mu: -0.101647689  nElectrons: 126.000000
	SubspaceRotationAdjust: set factor to 0.19
ElecMinimize: Iter: 100  F: -596.369029640468511  |grad|_K:  2.634e-07  alpha:  1.031e-01  linmin:  1.309e-04  t[s]:    425.46
	FillingsUpdate:  mu: -0.101587500  nElectrons: 126.000000
	SubspaceRotationAdjust: set factor to 0.166
ElecMinimize: Iter: 101  F: -596.369029867651420  |grad|_K:  2.273e-07  alpha:  8.629e-02  linmin:  5.685e-05  t[s]:    429.49
	FillingsUpdate:  mu: -0.101335669  nElectrons: 126.000000
	SubspaceRotationAdjust: set factor to 0.192
ElecMinimize: Iter: 102  F: -596.369030045451382  |grad|_K:  2.073e-07  alpha:  9.030e-02  linmin:  4.995e-05  t[s]:    433.51
	FillingsUpdate:  mu: -0.101087011  nElectrons: 126.000000

Dumping 'X.fillings' ... done
Dumping 'X.wfns' ... done
Dumping 'X.force' ... done
Dumping 'X.eigenvals' ... done
	SubspaceRotationAdjust: set factor to 0.15
ElecMinimize: Iter: 103  F: -596.369030241798214  |grad|_K:  2.511e-07  alpha:  1.202e-01  linmin:  6.917e-05  t[s]:    437.90
	FillingsUpdate:  mu: -0.101069775  nElectrons: 126.000000
	SubspaceRotationAdjust: set factor to 0.132
ElecMinimize: Iter: 104  F: -596.369030499419409  |grad|_K:  2.447e-07  alpha:  1.073e-01  linmin:  5.551e-05  t[s]:    441.91
	FillingsUpdate:  mu: -0.101291591  nElectrons: 126.000000
	SubspaceRotationAdjust: set factor to 0.173
ElecMinimize: Iter: 105  F: -596.369030725596417  |grad|_K:  2.187e-07  alpha:  9.906e-02  linmin:  5.854e-05  t[s]:    445.98
	FillingsUpdate:  mu: -0.101537901  nElectrons: 126.000000
	SubspaceRotationAdjust: set factor to 0.161
ElecMinimize: Iter: 106  F: -596.369030920584805  |grad|_K:  2.352e-07  alpha:  1.075e-01  linmin:  6.782e-05  t[s]:    449.97
	FillingsUpdate:  mu: -0.101635973  nElectrons: 126.000000
	SubspaceRotationAdjust: set factor to 0.13
ElecMinimize: Iter: 107  F: -596.369031132058012  |grad|_K:  2.423e-07  alpha:  1.003e-01  linmin:  9.998e-05  t[s]:    454.00
	FillingsUpdate:  mu: -0.101517199  nElectrons: 126.000000
	SubspaceRotationAdjust: set factor to 0.138
ElecMinimize: Iter: 108  F: -596.369031318396765  |grad|_K:  2.158e-07  alpha:  8.338e-02  linmin:  6.264e-05  t[s]:    458.08
	FillingsUpdate:  mu: -0.101319732  nElectrons: 126.000000
	SubspaceRotationAdjust: set factor to 0.163
ElecMinimize: Iter: 109  F: -596.369031469484298  |grad|_K:  2.099e-07  alpha:  8.566e-02  linmin:  1.112e-04  t[s]:    462.11
	FillingsUpdate:  mu: -0.101162041  nElectrons: 126.000000
	SubspaceRotationAdjust: set factor to 0.147
ElecMinimize: Iter: 110  F: -596.369031602393534  |grad|_K:  2.218e-07  alpha:  7.968e-02  linmin:  6.122e-05  t[s]:    466.13
	FillingsUpdate:  mu: -0.101119507  nElectrons: 126.000000

Dumping 'X.fillings' ... done
Dumping 'X.wfns' ... done
Dumping 'X.force' ... done
Dumping 'X.eigenvals' ... done
	SubspaceRotationAdjust: set factor to 0.127
ElecMinimize: Iter: 111  F: -596.369031730490860  |grad|_K:  2.140e-07  alpha:  6.810e-02  linmin:  3.008e-05  t[s]:    470.62
	FillingsUpdate:  mu: -0.101192780  nElectrons: 126.000000
	SubspaceRotationAdjust: set factor to 0.132
ElecMinimize: Iter: 112  F: -596.369031842240929  |grad|_K:  1.961e-07  alpha:  6.361e-02  linmin:  5.172e-05  t[s]:    474.64
	FillingsUpdate:  mu: -0.101319184  nElectrons: 126.000000
	SubspaceRotationAdjust: set factor to 0.155
ElecMinimize: Iter: 113  F: -596.369031938369062  |grad|_K:  1.934e-07  alpha:  6.562e-02  linmin:  3.673e-05  t[s]:    478.66
	FillingsUpdate:  mu: -0.101444683  nElectrons: 126.000000
	SubspaceRotationAdjust: set factor to 0.159
ElecMinimize: Iter: 114  F: -596.369032030331368  |grad|_K:  2.051e-07  alpha:  6.448e-02  linmin:  2.072e-05  t[s]:    482.69
ElecMinimize: Converged (|Delta F|<1.000000e-07 for 2 iters).
Setting wave functions to eigenvectors of Hamiltonian

# Ionic positions in lattice coordinates:
ion Na   0.000000000000000   0.000000000000000   0.233920000000000 1
ion Na   0.500000000000000   0.500000000000000   0.274860000000000 1
ion Na   0.000000000000000   0.000000000000000   0.315790000000000 1
ion Na   0.500000000000000   0.500000000000000   0.356730000000000 1
ion Na   0.000000000000000   0.000000000000000   0.397660000000000 1
ion Na   0.500000000000000   0.500000000000000   0.438600000000000 1
ion Na   0.000000000000000   0.000000000000000   0.479530000000000 1
ion Na   0.500000000000000   0.500000000000000   0.520470000000000 1
ion Na   0.000000000000000   0.000000000000000   0.561400000000000 1
ion Na   0.500000000000000   0.500000000000000   0.602340000000000 1
ion Na   0.000000000000000   0.000000000000000   0.643270000000000 1
ion Na   0.500000000000000   0.500000000000000   0.684210000000000 1
ion Na   0.000000000000000   0.000000000000000   0.725140000000000 1
ion Na   0.500000000000000   0.500000000000000   0.766080000000000 1

# Forces in Lattice coordinates:
force Na  -0.000000000000000  -0.000000000000000  -0.050817343387332 1
force Na  -0.000000000000000  -0.000000000000000  -0.011029899139000 1
force Na  -0.000000000000000   0.000000000000000  -0.040567246113944 1
force Na   0.000000000000000   0.000000000000000  -0.046267662956964 1
force Na  -0.000000000000000   0.000000000000000  -0.034309132734351 1
force Na   0.000000000000000  -0.000000000000000  -0.025908442753056 1
force Na  -0.000000000000000   0.000000000000000  -0.009647842827331 1
force Na  -0.000000000000000  -0.000000000000000   0.009647842827331 1
force Na   0.000000000000000   0.000000000000000   0.025908442752601 1
force Na  -0.000000000000000   0.000000000000000   0.034309132733896 1
force Na   0.000000000000000  -0.000000000000000   0.046267662956964 1
force Na  -0.000000000000000   0.000000000000000   0.040567246113034 1
force Na  -0.000000000000000  -0.000000000000000   0.011029899139000 1
force Na   0.000000000000000  -0.000000000000000   0.050817343389151 1

# Energy components:
   Eewald =   -14884.3787472305466508
       EH =   -14407.0856899928185157
     Eloc =    28660.1880807367342641
      Enl =     -180.9764485758468595
   Epulay =       -0.0000162768753413
      Exc =      -87.6572527504085457
       KE =      303.5960457504331771
-------------------------------------
     Etot =     -596.3140283393304344
       TS =        0.0550036910008822
-------------------------------------
        F =     -596.3690320303313683

IonicMinimize: Iter:   0  F: -596.369032030331368  |grad|_K:  2.067e-04  t[s]:    483.27
IonicMinimize: None of the convergence criteria satisfied after 0 iterations.

#--- Lowdin population analysis ---
# oxidation-state Na +0.077 +0.051 +0.049 +0.056 +0.053 +0.053 +0.054 +0.054 +0.053 +0.053 +0.056 +0.049 +0.051 +0.077


Dumping 'X.fillings' ... done
Dumping 'X.wfns' ... done
Dumping 'X.ionpos' ... done
Dumping 'X.lattice' ... done
Dumping 'X.n' ... done
Dumping 'X.eigenvals' ... done
Dumping 'X.eigStats' ... 
	eMin: -2.063313 at state 0 ( [ +0.000000 +0.000000 +0.000000 ] spin 0 )
	HOMO: -0.102435 at state 13 ( [ +0.181818 +0.363636 +0.000000 ] spin 0 )
	mu  : -0.101445
	LUMO: -0.101073 at state 12 ( [ +0.181818 +0.272727 +0.000000 ] spin 0 )
	eMax: +0.003194 at state 11 ( [ +0.181818 +0.181818 +0.000000 ] spin 0 )
	HOMO-LUMO gap: +0.001362
	Optical gap  : +0.003803 at state 17 ( [ +0.272727 +0.454545 +0.000000 ] spin 0 )
Dumping 'X.dos' ... done.
End date and time: Thu Nov  9 00:50:01 2023  (Duration: 0-0:08:04.90)
Done!

*************** JDFTx 1.7.0  ***************

Start date and time: Thu Nov  9 00:50:03 2023
Executable jdftx with command-line: -m -i X.in -o X.out
Running on hosts (process indices):  ac0751 (0-20)
Divided in process groups (process indices):  0 (0)  1 (1)  2 (2)  3 (3)  4 (4)  5 (5)  6 (6)  7 (7)  8 (8)  9 (9)  10 (10)  11 (11)  12 (12)  13 (13)  14 (14)  15 (15)  16 (16)  17 (17)  18 (18)  19 (19)  20 (20)
Resource initialization completed at t[s]:      0.01
Run totals: 21 processes, 21 threads, 0 GPUs


Input parsed successfully to the following command list (including defaults):

basis kpoint-dependent
cache-projectors no
coords-type Lattice
core-overlap-check vector
coulomb-interaction Slab 001
coulomb-truncation-embed 0 0 0.5
davidson-band-ratio 1.1
density-of-states Etol 1.000000e-06 Esigma 0.000000e+00 \
		Complete \
	Total \
		Occupied \
	Total
dump End State IonicPositions Lattice ElecDensity CoreDensity EigStats DOS
dump Electronic State Forces
dump Ionic State IonicPositions Forces Lattice DOS
dump-interval Electronic 8
dump-interval Ionic 4
dump-name X.$var
elec-cutoff 30
elec-eigen-algo Davidson
elec-ex-corr gga-PBE
elec-smearing Fermi 0.0095
electronic-minimize  \
	dirUpdateScheme      FletcherReeves \
	linminMethod         DirUpdateRecommended \
	nIterations          2000 \
	history              15 \
	knormThreshold       0 \
	energyDiffThreshold  1e-07 \
	nEnergyDiff          2 \
	alphaTstart          1 \
	alphaTmin            1e-10 \
	updateTestStepSize   yes \
	alphaTreduceFactor   0.1 \
	alphaTincreaseFactor 3 \
	nAlphaAdjustMax      3 \
	wolfeEnergy          0.0001 \
	wolfeGradient        0.9 \
	fdTest               no
exchange-regularization WignerSeitzTruncated
fluid None
fluid-ex-corr (null) lda-PZ
fluid-gummel-loop 10 1.000000e-05
fluid-minimize  \
	dirUpdateScheme      PolakRibiere \
	linminMethod         DirUpdateRecommended \
	nIterations          100 \
	history              15 \
	knormThreshold       0 \
	energyDiffThreshold  0 \
	nEnergyDiff          2 \
	alphaTstart          1 \
	alphaTmin            1e-10 \
	updateTestStepSize   yes \
	alphaTreduceFactor   0.1 \
	alphaTincreaseFactor 3 \
	nAlphaAdjustMax      3 \
	wolfeEnergy          0.0001 \
	wolfeGradient        0.9 \
	fdTest               no
fluid-solvent H2O 55.338 ScalarEOS \
	epsBulk 78.4 \
	pMol 0.92466 \
	epsInf 1.77 \
	Pvap 1.06736e-10 \
	sigmaBulk 4.62e-05 \
	Rvdw 2.61727 \
	Res 1.42 \
	tauNuc 343133 \
	poleEl 15 7 1
forces-output-coords Positions
ion Na   0.000000000000000   0.000000000000000   0.233920000000000 1
ion Na   0.500000000000000   0.500000000000000   0.274860000000000 1
ion Na   0.000000000000000   0.000000000000000   0.315790000000000 1
ion Na   0.500000000000000   0.500000000000000   0.356730000000000 1
ion Na   0.000000000000000   0.000000000000000   0.397660000000000 1
ion Na   0.500000000000000   0.500000000000000   0.438600000000000 1
ion Na   0.000000000000000   0.000000000000000   0.479530000000000 1
ion Na   0.500000000000000   0.500000000000000   0.520470000000000 1
ion Na   0.000000000000000   0.000000000000000   0.561400000000000 1
ion Na   0.500000000000000   0.500000000000000   0.602340000000000 1
ion Na   0.000000000000000   0.000000000000000   0.643270000000000 1
ion Na   0.500000000000000   0.500000000000000   0.684210000000000 1
ion Na   0.000000000000000   0.000000000000000   0.725140000000000 1
ion Na   0.500000000000000   0.500000000000000   0.766080000000000 1
ion-species SG15/$ID_ONCV_PBE.upf
ion-width 0
ionic-minimize  \
	dirUpdateScheme      L-BFGS \
	linminMethod         DirUpdateRecommended \
	nIterations          0 \
	history              15 \
	knormThreshold       0.0001 \
	energyDiffThreshold  1e-06 \
	nEnergyDiff          2 \
	alphaTstart          1 \
	alphaTmin            1e-10 \
	updateTestStepSize   yes \
	alphaTreduceFactor   0.1 \
	alphaTincreaseFactor 3 \
	nAlphaAdjustMax      3 \
	wolfeEnergy          0.0001 \
	wolfeGradient        0.9 \
	fdTest               no
kpoint   0.000000000000   0.000000000000   0.000000000000  1.00000000000000
kpoint-folding 11 11 1 
latt-move-scale 1 1 1
latt-scale 1 1 1 
lattice  \
	   7.936714821600003   -0.000000000000000   -0.000000000000000  \
	   0.000000000000000    7.936714821600003   -0.000000000000000  \
	   0.000000000000000    0.000000000000000   96.942204134999997 
lattice-minimize  \
	dirUpdateScheme      L-BFGS \
	linminMethod         DirUpdateRecommended \
	nIterations          0 \
	history              15 \
	knormThreshold       0 \
	energyDiffThreshold  1e-06 \
	nEnergyDiff          2 \
	alphaTstart          1 \
	alphaTmin            1e-10 \
	updateTestStepSize   yes \
	alphaTreduceFactor   0.1 \
	alphaTincreaseFactor 3 \
	nAlphaAdjustMax      3 \
	wolfeEnergy          0.0001 \
	wolfeGradient        0.9 \
	fdTest               no
lcao-params -1 1e-06 0.0095
pcm-variant GLSSA13
spintype no-spin
subspace-rotation-factor 1 yes
symmetries automatic
symmetry-threshold 0.0001
wavefunction read X.wfns 70 20.000000



---------- Setting up symmetries ----------

Found 16 point-group symmetries of the bravais lattice
Found 16 space-group symmetries with basis
Applied RMS atom displacement 0 bohrs to make symmetries exact.

---------- Initializing the Grid ----------
R = 
[      7.93671            0            0  ]
[            0      7.93671            0  ]
[            0            0      96.9422  ]
unit cell volume = 6106.53
G =
[   0.791661          0          0  ]
[         -0   0.791661          0  ]
[          0         -0  0.0648137  ]
Minimum fftbox size, Smin = [  40  40  480  ]
Chosen fftbox size, S = [  40  40  480  ]

---------- Exchange Correlation functional ----------
Initalized PBE GGA exchange.
Initalized PBE GGA correlation.

---------- Setting up pseudopotentials ----------
Width of ionic core gaussian charges (only for fluid interactions / plotting) set to 0

Reading pseudopotential file '/net/software/testing/software/jdftx/1.7.0-foss-2021b-mkl/share/jdftx/pseudopotentials/SG15/Na_ONCV_PBE.upf':
  'Na' pseudopotential, 'PBE' functional
  Generated using ONCVPSP code by D. R. Hamann
  Author: Martin Schlipf and Francois Gygi  Date: 150915.
  9 valence electrons, 3 orbitals, 4 projectors, 1992 radial grid points, with lMax = 1
  Transforming local potential to a uniform radial grid of dG=0.02 with 1369 points.
  Transforming nonlocal projectors to a uniform radial grid of dG=0.02 with 528 points.
    2S    l: 0   occupation:  2.0   eigenvalue: -2.085640
    2P    l: 1   occupation:  6.0   eigenvalue: -1.053708
    3S    l: 0   occupation:  1.0   eigenvalue: -0.100838
  Transforming atomic orbitals to a uniform radial grid of dG=0.02 with 528 points.
  Core radius for overlap checks: 2.01 bohrs.
  Reading pulay file /net/software/testing/software/jdftx/1.7.0-foss-2021b-mkl/share/jdftx/pseudopotentials/SG15/Na_ONCV_PBE.pulay ... using dE_dnG = -3.261361e-04 computed for Ecut = 30.

Initialized 1 species with 14 total atoms.

Folded 1 k-points by 11x11x1 to 121 k-points.

---------- Setting up k-points, bands, fillings ----------
Reduced to 21 k-points under symmetry. 
Computing the number of bands and number of electrons
Calculating initial fillings.
nElectrons: 126.000000   nBands: 70   nStates: 21

----- Setting up reduced wavefunction bases (one per k-point) -----
average nbasis = 47928.091 , ideal nbasis = 47925.905

----- Initializing Supercell corresponding to k-point mesh -----
Lattice vector linear combinations in supercell:
[  11   0   0  ]
[   0  11   0  ]
[   0   0   1  ]
Supercell lattice vectors:
[  87.3039  0  0  ]
[  0  87.3039  0  ]
[  0  0  96.9422  ]

---------- Setting up coulomb interaction ----------
Setting up double-sized grid for truncated Coulomb potentials:
R = 
[      7.93671            0            0  ]
[            0      7.93671            0  ]
[            0            0      193.884  ]
unit cell volume = 12213.1
G =
[   0.791661          0          0  ]
[         -0   0.791661          0  ]
[          0         -0  0.0324069  ]
Chosen fftbox size, S = [  40  40  960  ]
Integer grid location selected as the embedding center:
   Grid: [  0  0  240  ]
   Lattice: [  0  0  0.5  ]
   Cartesian: [  0  0  48.4711  ]
Constructing Wigner-Seitz cell: 6 faces (6 quadrilaterals, 0 hexagons)
Range-separation parameter for embedded mesh potentials due to point charges: 0.566951 bohrs.
Initialized slab truncation along lattice direction 001

---------- Setting up 2D ewald sum ----------
[...]
ElecMinimize: Converged (|Delta F|<1.000000e-08 for 2 iters).
Setting wave functions to eigenvectors of Hamiltonian
Converging empty states (this may take a while): |deigs|: 1.560e-09

# Ionic positions in lattice coordinates:
ion Na   0.000000000000000   0.000000000000000   0.233901070614127 1
ion Na   0.500000000000000   0.500000000000000   0.274881487396415 1
ion Na   0.000000000000000   0.000000000000000   0.315776536139931 1
ion Na   0.500000000000000   0.500000000000000   0.356680519366943 1
ion Na   0.000000000000000   0.000000000000000   0.397677659023460 1
ion Na   0.500000000000000   0.500000000000000   0.438606955460704 1
ion Na   0.000000000000000   0.000000000000000   0.479518979674683 1
ion Na   0.500000000000000   0.500000000000000   0.520481020325317 1
ion Na   0.000000000000000   0.000000000000000   0.561393044539296 1
ion Na   0.500000000000000   0.500000000000000   0.602322340976540 1
ion Na   0.000000000000000   0.000000000000000   0.643319480633057 1
ion Na   0.500000000000000   0.500000000000000   0.684223463860069 1
ion Na   0.000000000000000   0.000000000000000   0.725118512603585 1
ion Na   0.500000000000000   0.500000000000000   0.766098929385873 1

# Forces in Lattice coordinates:
force Na   0.000000000000000  -0.000000000000000  -0.004223706783650 1
force Na   0.000000000000000  -0.000000000000000   0.012776158482629 1
force Na  -0.000000000000000  -0.000000000000000  -0.003570965097651 1
force Na   0.000000000000000  -0.000000000000000  -0.023798271281570 1
force Na   0.000000000000000   0.000000000000000   0.012878188351412 1
force Na   0.000000000000000   0.000000000000000   0.008608501110314 1
force Na  -0.000000000000000  -0.000000000000000  -0.003586498718728 1
force Na   0.000000000000000   0.000000000000000   0.003586498718728 1
force Na   0.000000000000000   0.000000000000000  -0.008608501110314 1
force Na   0.000000000000000   0.000000000000000  -0.012878188351412 1
force Na   0.000000000000000  -0.000000000000000   0.023798271281570 1
force Na   0.000000000000000  -0.000000000000000   0.003570965097651 1
force Na   0.000000000000000  -0.000000000000000  -0.012776158482629 1
force Na   0.000000000000000  -0.000000000000000   0.004223706785469 1

# Energy components:
   Eewald =   -14884.9689438937330124
       EH =   -14407.0955813403907086
     Eloc =    28660.7140095366667083
      Enl =     -181.0406049926262142
   Epulay =       -0.0000000296895075
      Exc =      -87.6755526163972547
       KE =      303.6871928652551560
-------------------------------------
     Etot =     -596.3794804709148138
       TS =        0.0005937290861049
-------------------------------------
        F =     -596.3800742000008768

IonicMinimize: Iter:   1  F: -596.380074200000877  |grad|_K:  7.164e-05  alpha:  1.425e+01  linmin: -9.900e-01  t[s]:   1062.76

#--- Lowdin population analysis ---
# oxidation-state Na +0.052 +0.050 +0.031 +0.048 +0.045 +0.037 +0.042 +0.042 +0.037 +0.045 +0.048 +0.031 +0.050 +0.052


-------- Electronic minimization -----------
	FillingsUpdate:  mu: -0.116586054  nElectrons: 126.000000
ElecMinimize: Iter:   0  F: -596.200678602866560  |grad|_K:  7.271e-05  alpha:  1.000e+00
	FillingsUpdate:  mu: -0.093638608  nElectrons: 126.000000
	SubspaceRotationAdjust: set factor to 0.061
ElecMinimize: Iter:   1  F: -596.373452791623890  |grad|_K:  1.078e-05  alpha:  2.181e-01  linmin:  3.489e-02  t[s]:   1098.89
	FillingsUpdate:  mu: -0.097291270  nElectrons: 126.000000
	SubspaceRotationAdjust: set factor to 0.0617
ElecMinimize: Iter:   2  F: -596.379186256562889  |grad|_K:  3.555e-06  alpha:  3.290e-01  linmin: -5.499e-04  t[s]:   1119.66
	FillingsUpdate:  mu: -0.097794910  nElectrons: 126.000000
	SubspaceRotationAdjust: set factor to 0.0629
ElecMinimize: Iter:   3  F: -596.379845093465292  |grad|_K:  1.447e-06  alpha:  3.434e-01  linmin: -6.572e-06  t[s]:   1140.41
	FillingsUpdate:  mu: -0.097878986  nElectrons: 126.000000
	SubspaceRotationAdjust: set factor to 0.0687
ElecMinimize: Iter:   4  F: -596.379963954513983  |grad|_K:  6.738e-07  alpha:  3.743e-01  linmin: -7.907e-07  t[s]:   1161.16
	FillingsUpdate:  mu: -0.097735959  nElectrons: 126.000000
	SubspaceRotationAdjust: set factor to 0.0861
ElecMinimize: Iter:   5  F: -596.379992164422447  |grad|_K:  4.042e-07  alpha:  4.097e-01  linmin:  9.125e-07  t[s]:   1181.88
	FillingsUpdate:  mu: -0.097850054  nElectrons: 126.000000
	SubspaceRotationAdjust: set factor to 0.113
ElecMinimize: Iter:   6  F: -596.380005152885246  |grad|_K:  3.647e-07  alpha:  5.242e-01  linmin: -5.426e-07  t[s]:   1202.64
	FillingsUpdate:  mu: -0.098225735  nElectrons: 126.000000

Dumping 'X.fillings' ... done
Dumping 'X.wfns' ... done
Dumping 'X.ionpos' ... done
Dumping 'X.force' ... done
Dumping 'X.eigenvals' ... done
	SubspaceRotationAdjust: set factor to 0.136
ElecMinimize: Iter:   7  F: -596.380020480663120  |grad|_K:  4.423e-07  alpha:  7.599e-01  linmin:  1.412e-08  t[s]:   1224.39
	FillingsUpdate:  mu: -0.098249577  nElectrons: 126.000000
	SubspaceRotationAdjust: set factor to 0.154
ElecMinimize: Iter:   8  F: -596.380041787237360  |grad|_K:  4.869e-07  alpha:  7.182e-01  linmin: -3.386e-07  t[s]:   1245.14
	FillingsUpdate:  mu: -0.099085693  nElectrons: 126.000000
	SubspaceRotationAdjust: set factor to 0.173
ElecMinimize: Iter:   9  F: -596.380060897276394  |grad|_K:  4.218e-07  alpha:  5.314e-01  linmin:  6.961e-08  t[s]:   1265.98
	FillingsUpdate:  mu: -0.098078842  nElectrons: 126.000000
	SubspaceRotationAdjust: set factor to 0.177
ElecMinimize: Iter:  10  F: -596.380072922695149  |grad|_K:  3.380e-07  alpha:  4.457e-01  linmin:  1.056e-08  t[s]:   1286.74
	FillingsUpdate:  mu: -0.099393127  nElectrons: 126.000000
	SubspaceRotationAdjust: set factor to 0.138
ElecMinimize: Iter:  11  F: -596.380078765797862  |grad|_K:  2.942e-07  alpha:  3.372e-01  linmin:  2.832e-07  t[s]:   1307.48
	FillingsUpdate:  mu: -0.097931179  nElectrons: 126.000000
	SubspaceRotationAdjust: set factor to 0.0919
ElecMinimize: Iter:  12  F: -596.380082104837811  |grad|_K:  1.983e-07  alpha:  2.545e-01  linmin: -5.759e-07  t[s]:   1328.26
	FillingsUpdate:  mu: -0.098050149  nElectrons: 126.000000
	SubspaceRotationAdjust: set factor to 0.1
ElecMinimize: Iter:  13  F: -596.380084415708325  |grad|_K:  1.349e-07  alpha:  3.873e-01  linmin: -1.685e-06  t[s]:   1349.04
	FillingsUpdate:  mu: -0.098324301  nElectrons: 126.000000
	SubspaceRotationAdjust: set factor to 0.0982
ElecMinimize: Iter:  14  F: -596.380085493774004  |grad|_K:  9.783e-08  alpha:  3.905e-01  linmin:  3.623e-06  t[s]:   1369.81
	FillingsUpdate:  mu: -0.097968739  nElectrons: 126.000000

Dumping 'X.fillings' ... done
Dumping 'X.wfns' ... done
Dumping 'X.ionpos' ... done
Dumping 'X.force' ... done
Dumping 'X.eigenvals' ... done
	SubspaceRotationAdjust: set factor to 0.0992
ElecMinimize: Iter:  15  F: -596.380086088523512  |grad|_K:  7.376e-08  alpha:  4.100e-01  linmin:  6.147e-06  t[s]:   1391.81
	FillingsUpdate:  mu: -0.098090385  nElectrons: 126.000000
	SubspaceRotationAdjust: set factor to 0.125
ElecMinimize: Iter:  16  F: -596.380086477112400  |grad|_K:  6.210e-08  alpha:  4.701e-01  linmin: -1.475e-04  t[s]:   1412.59
	FillingsUpdate:  mu: -0.098269949  nElectrons: 126.000000
	SubspaceRotationAdjust: set factor to 0.148
ElecMinimize: Iter:  17  F: -596.380086757635581  |grad|_K:  5.728e-08  alpha:  4.787e-01  linmin:  1.708e-05  t[s]:   1433.43
	FillingsUpdate:  mu: -0.098127734  nElectrons: 126.000000
	SubspaceRotationAdjust: set factor to 0.156
ElecMinimize: Iter:  18  F: -596.380086972072831  |grad|_K:  5.281e-08  alpha:  4.311e-01  linmin: -5.660e-06  t[s]:   1454.15
	FillingsUpdate:  mu: -0.098358014  nElectrons: 126.000000
	SubspaceRotationAdjust: set factor to 0.155
ElecMinimize: Iter:  19  F: -596.380087143479955  |grad|_K:  4.713e-08  alpha:  4.056e-01  linmin:  2.195e-05  t[s]:   1474.92
	FillingsUpdate:  mu: -0.098231972  nElectrons: 126.000000
	SubspaceRotationAdjust: set factor to 0.157
ElecMinimize: Iter:  20  F: -596.380087287556876  |grad|_K:  4.292e-08  alpha:  4.292e-01  linmin: -1.375e-05  t[s]:   1495.73
	FillingsUpdate:  mu: -0.098327061  nElectrons: 126.000000
	SubspaceRotationAdjust: set factor to 0.163
ElecMinimize: Iter:  21  F: -596.380087421068083  |grad|_K:  3.951e-08  alpha:  4.756e-01  linmin:  2.699e-06  t[s]:   1516.52
	FillingsUpdate:  mu: -0.098211000  nElectrons: 126.000000
	SubspaceRotationAdjust: set factor to 0.165
ElecMinimize: Iter:  22  F: -596.380087528778063  |grad|_K:  3.321e-08  alpha:  4.553e-01  linmin: -8.740e-07  t[s]:   1537.24
	FillingsUpdate:  mu: -0.098272648  nElectrons: 126.000000

Dumping 'X.fillings' ... done
Dumping 'X.wfns' ... done
Dumping 'X.ionpos' ... done
Dumping 'X.force' ... done
Dumping 'X.eigenvals' ... done
	SubspaceRotationAdjust: set factor to 0.149
ElecMinimize: Iter:  23  F: -596.380087592887321  |grad|_K:  2.622e-08  alpha:  3.810e-01  linmin: -1.016e-05  t[s]:   1558.98
	FillingsUpdate:  mu: -0.098155144  nElectrons: 126.000000
	SubspaceRotationAdjust: set factor to 0.116
ElecMinimize: Iter:  24  F: -596.380087626130830  |grad|_K:  2.062e-08  alpha:  3.201e-01  linmin: -1.585e-05  t[s]:   1579.94
	FillingsUpdate:  mu: -0.098215180  nElectrons: 126.000000
	SubspaceRotationAdjust: set factor to 0.101
ElecMinimize: Iter:  25  F: -596.380087649126040  |grad|_K:  1.616e-08  alpha:  3.622e-01  linmin:  4.571e-05  t[s]:   1600.70
	FillingsUpdate:  mu: -0.098201085  nElectrons: 126.000000
	SubspaceRotationAdjust: set factor to 0.112
ElecMinimize: Iter:  26  F: -596.380087666841064  |grad|_K:  1.408e-08  alpha:  4.517e-01  linmin:  7.456e-06  t[s]:   1621.47
	FillingsUpdate:  mu: -0.098165215  nElectrons: 126.000000
	SubspaceRotationAdjust: set factor to 0.112
ElecMinimize: Iter:  27  F: -596.380087680277711  |grad|_K:  1.217e-08  alpha:  4.356e-01  linmin:  9.659e-05  t[s]:   1642.22
	FillingsUpdate:  mu: -0.098202489  nElectrons: 126.000000
	SubspaceRotationAdjust: set factor to 0.114
ElecMinimize: Iter:  28  F: -596.380087689051720  |grad|_K:  9.591e-09  alpha:  3.988e-01  linmin: -3.039e-04  t[s]:   1662.98
	FillingsUpdate:  mu: -0.098204755  nElectrons: 126.000000
	SubspaceRotationAdjust: set factor to 0.13
ElecMinimize: Iter:  29  F: -596.380087696142368  |grad|_K:  8.397e-09  alpha:  4.540e-01  linmin:  3.197e-04  t[s]:   1683.75
ElecMinimize: Converged (|Delta F|<1.000000e-08 for 2 iters).
Setting wave functions to eigenvectors of Hamiltonian
Converging empty states (this may take a while): |deigs|: 1.371e-08

# Ionic positions in lattice coordinates:
ion Na  -0.000000000000000   0.000000000000000   0.233900237940114 1
ion Na   0.500000000000000   0.500000000000000   0.275095701312123 1
ion Na  -0.000000000000000   0.000000000000000   0.315769569496218 1
ion Na   0.500000000000000   0.500000000000000   0.356400435264804 1
ion Na  -0.000000000000000   0.000000000000000   0.397854175975787 1
ion Na   0.500000000000000   0.500000000000000   0.438761276548000 1
ion Na  -0.000000000000000   0.000000000000000   0.479502270880185 1
ion Na   0.500000000000000   0.500000000000000   0.520497729119815 1
ion Na  -0.000000000000000   0.000000000000000   0.561238723452000 1
ion Na   0.500000000000000   0.500000000000000   0.602145824024212 1
ion Na  -0.000000000000000   0.000000000000000   0.643599564735196 1
ion Na   0.500000000000000   0.500000000000000   0.684230430503782 1
ion Na   0.000000000000000   0.000000000000000   0.724904298687877 1
ion Na   0.500000000000000   0.500000000000000   0.766099762059886 1

# Forces in Lattice coordinates:
force Na  -0.000000000000000   0.000000000000000   0.003826886265394 1
force Na  -0.000000000000000  -0.000000000000000  -0.001947569580035 1
force Na   0.000000000000000  -0.000000000000000  -0.004569150587090 1
force Na   0.000000000000000  -0.000000000000000   0.001226213014927 1
force Na   0.000000000000000   0.000000000000000  -0.001870545096332 1
force Na   0.000000000000000  -0.000000000000000   0.003062907380346 1
force Na  -0.000000000000000   0.000000000000000   0.002596271490931 1
force Na  -0.000000000000000  -0.000000000000000  -0.002596271491159 1
force Na   0.000000000000000  -0.000000000000000  -0.003062907381255 1
force Na   0.000000000000000   0.000000000000000   0.001870545096332 1
force Na  -0.000000000000000  -0.000000000000000  -0.001226213015836 1
force Na   0.000000000000000  -0.000000000000000   0.004569150587999 1
force Na  -0.000000000000000   0.000000000000000   0.001947569580035 1
force Na  -0.000000000000000   0.000000000000000  -0.003826886265393 1

# Energy components:
   Eewald =   -14882.3828271377878991
       EH =   -14404.5019801639591606
     Eloc =    28655.5342589881547610
      Enl =     -181.0406843154455032
   Epulay =       -0.0000000296895075
      Exc =      -87.6756178749609063
       KE =      303.6873510297613166
-------------------------------------
     Etot =     -596.3794995039270361
       TS =        0.0005881922153082
-------------------------------------
        F =     -596.3800876961423683

IonicMinimize: Iter:   2  F: -596.380087696142368  |grad|_K:  1.750e-05  alpha:  1.000e+00  linmin:  1.921e-01  t[s]:   1706.07

#--- Lowdin population analysis ---
# oxidation-state Na +0.052 +0.050 +0.031 +0.048 +0.045 +0.037 +0.042 +0.042 +0.037 +0.045 +0.048 +0.031 +0.050 +0.052


-------- Electronic minimization -----------
	FillingsUpdate:  mu: -0.097759417  nElectrons: 126.000000
ElecMinimize: Iter:   0  F: -596.380082490922291  |grad|_K:  3.563e-07  alpha:  1.000e+00
	FillingsUpdate:  mu: -0.098794567  nElectrons: 126.000000
	SubspaceRotationAdjust: set factor to 0.0794
ElecMinimize: Iter:   1  F: -596.380087607575661  |grad|_K:  1.220e-07  alpha:  2.657e-01  linmin: -5.378e-05  t[s]:   1742.65
	FillingsUpdate:  mu: -0.098186839  nElectrons: 126.000000
	SubspaceRotationAdjust: set factor to 0.045
ElecMinimize: Iter:   2  F: -596.380088081462532  |grad|_K:  5.312e-08  alpha:  2.100e-01  linmin: -1.311e-05  t[s]:   1763.54
	FillingsUpdate:  mu: -0.098223423  nElectrons: 126.000000
	SubspaceRotationAdjust: set factor to 0.0658
ElecMinimize: Iter:   3  F: -596.380088278123253  |grad|_K:  3.485e-08  alpha:  4.593e-01  linmin: -1.264e-04  t[s]:   1784.28
	FillingsUpdate:  mu: -0.098346761  nElectrons: 126.000000
	SubspaceRotationAdjust: set factor to 0.0646
ElecMinimize: Iter:   4  F: -596.380088374363140  |grad|_K:  2.383e-08  alpha:  5.212e-01  linmin:  2.147e-04  t[s]:   1805.03
	FillingsUpdate:  mu: -0.098277820  nElectrons: 126.000000
	SubspaceRotationAdjust: set factor to 0.0746
ElecMinimize: Iter:   5  F: -596.380088427996839  |grad|_K:  1.869e-08  alpha:  6.216e-01  linmin: -1.405e-05  t[s]:   1825.84
	FillingsUpdate:  mu: -0.098224149  nElectrons: 126.000000
	SubspaceRotationAdjust: set factor to 0.0827
ElecMinimize: Iter:   6  F: -596.380088456647741  |grad|_K:  1.465e-08  alpha:  5.468e-01  linmin: -4.800e-04  t[s]:   1846.58
	FillingsUpdate:  mu: -0.098202126  nElectrons: 126.000000

Dumping 'X.fillings' ... done
Dumping 'X.wfns' ... done
Dumping 'X.ionpos' ... done
Dumping 'X.force' ... done
Dumping 'X.eigenvals' ... done
	SubspaceRotationAdjust: set factor to 0.0933
ElecMinimize: Iter:   7  F: -596.380088476145602  |grad|_K:  1.195e-08  alpha:  5.915e-01  linmin:  2.927e-04  t[s]:   1868.37
	FillingsUpdate:  mu: -0.098200325  nElectrons: 126.000000
	SubspaceRotationAdjust: set factor to 0.101
ElecMinimize: Iter:   8  F: -596.380088489084756  |grad|_K:  1.061e-08  alpha:  5.978e-01  linmin:  1.123e-03  t[s]:   1889.22
	FillingsUpdate:  mu: -0.098170754  nElectrons: 126.000000
	SubspaceRotationAdjust: set factor to 0.107
ElecMinimize: Iter:   9  F: -596.380088498707892  |grad|_K:  9.846e-09  alpha:  5.908e-01  linmin: -2.946e-04  t[s]:   1910.01
	FillingsUpdate:  mu: -0.098189303  nElectrons: 126.000000
	SubspaceRotationAdjust: set factor to 0.115
ElecMinimize: Iter:  10  F: -596.380088506369589  |grad|_K:  8.580e-09  alpha:  5.353e-01  linmin: -5.257e-05  t[s]:   1930.88
ElecMinimize: Converged (|Delta F|<1.000000e-08 for 2 iters).
Setting wave functions to eigenvectors of Hamiltonian
Converging empty states (this may take a while): |deigs|: 2.512e-09

# Ionic positions in lattice coordinates:
ion Na  -0.000000000000000   0.000000000000000   0.233935745215925 1
ion Na   0.500000000000000   0.500000000000000   0.275079141579262 1
ion Na  -0.000000000000000   0.000000000000000   0.315714538026748 1
ion Na   0.500000000000000   0.500000000000000   0.356396767519364 1
ion Na  -0.000000000000000   0.000000000000000   0.397841218206738 1
ion Na   0.500000000000000   0.500000000000000   0.438797350481213 1
ion Na  -0.000000000000000   0.000000000000000   0.479526370653345 1
ion Na   0.500000000000000   0.500000000000000   0.520473629346655 1
ion Na  -0.000000000000000   0.000000000000000   0.561202649518787 1
ion Na   0.500000000000000   0.500000000000000   0.602158781793262 1
ion Na  -0.000000000000000   0.000000000000000   0.643603232480636 1
ion Na   0.500000000000000   0.500000000000000   0.684285461973252 1
ion Na   0.000000000000000  -0.000000000000000   0.724920858420738 1
ion Na   0.500000000000000   0.500000000000000   0.766064254784075 1

# Forces in Lattice coordinates:
force Na   0.000000000000000   0.000000000000000   0.001526918313476 1
force Na   0.000000000000000  -0.000000000000000  -0.001080528673045 1
force Na  -0.000000000000000   0.000000000000000  -0.002601812530873 1
force Na  -0.000000000000000   0.000000000000000  -0.002482413768146 1
force Na  -0.000000000000000   0.000000000000000   0.000092525003422 1
force Na   0.000000000000000   0.000000000000000   0.000912083224122 1
force Na   0.000000000000000   0.000000000000000   0.000589626671393 1
force Na   0.000000000000000   0.000000000000000  -0.000589626671279 1
force Na   0.000000000000000   0.000000000000000  -0.000912083223667 1
force Na  -0.000000000000000   0.000000000000000  -0.000092525002967 1
force Na  -0.000000000000000  -0.000000000000000   0.002482413769056 1
force Na  -0.000000000000000   0.000000000000000   0.002601812530873 1
force Na   0.000000000000000   0.000000000000000   0.001080528673045 1
force Na   0.000000000000000  -0.000000000000000  -0.001526918313475 1

# Energy components:
   Eewald =   -14882.6618000610142190
       EH =   -14404.7785897438061511
     Eloc =    28656.0897428526950534
      Enl =     -181.0407012399097653
   Epulay =       -0.0000000296895075
      Exc =      -87.6757252822739446
       KE =      303.6875722663888837
-------------------------------------
     Etot =     -596.3795012376078830
       TS =        0.0005872687616789
-------------------------------------
        F =     -596.3800885063695887


Dumping 'X.fillings' ... done
Dumping 'X.wfns' ... done
Dumping 'X.ionpos' ... done
Dumping 'X.force' ... done
Dumping 'X.lattice' ... done
Dumping 'X.eigenvals' ... done
Dumping 'X.dos' ... done.
IonicMinimize: Iter:   3  F: -596.380088506369589  |grad|_K:  9.449e-06  alpha:  1.000e+00  linmin: -7.911e-01  t[s]:   1956.88
IonicMinimize: Converged (|grad|_K<1.000000e-05).

#--- Lowdin population analysis ---
# oxidation-state Na +0.052 +0.050 +0.031 +0.048 +0.045 +0.037 +0.042 +0.042 +0.037 +0.045 +0.048 +0.031 +0.050 +0.052


Dumping 'X.fillings' ... done
Dumping 'X.wfns' ... done
Dumping 'X.ionpos' ... done
Dumping 'X.lattice' ... done
Dumping 'X.n' ... done
Dumping 'X.eigenvals' ... done
Dumping 'X.eigStats' ... 
	eMin: -2.059156 at state 0 ( [ +0.000000 +0.000000 +0.000000 ] spin 0 )
	HOMO: -0.099087 at state 13 ( [ +0.181818 +0.363636 +0.000000 ] spin 0 )
	mu  : -0.098189
	LUMO: -0.097786 at state 12 ( [ +0.181818 +0.272727 +0.000000 ] spin 0 )
	eMax: -0.002439 at state 6 ( [ +0.090909 +0.090909 +0.000000 ] spin 0 )
	HOMO-LUMO gap: +0.001301
	Optical gap  : +0.003771 at state 17 ( [ +0.272727 +0.454545 +0.000000 ] spin 0 )
Dumping 'X.dos' ... done.
End date and time: Thu Nov  9 02:09:26 2023  (Duration: 0-0:32:54.94)
Done!
