
*************** JDFTx 1.7.0  ***************

Start date and time: Thu Nov  9 00:43:02 2023
Executable jdftx with command-line: -m -i X.in -o X.out
Running on hosts (process indices):  ac0710 (0-20)
Divided in process groups (process indices):  0 (0)  1 (1)  2 (2)  3 (3)  4 (4)  5 (5)  6 (6)  7 (7)  8 (8)  9 (9)  10 (10)  11 (11)  12 (12)  13 (13)  14 (14)  15 (15)  16 (16)  17 (17)  18 (18)  19 (19)  20 (20)
Resource initialization completed at t[s]:      0.00
Run totals: 21 processes, 21 threads, 0 GPUs


Input parsed successfully to the following command list (including defaults):

basis kpoint-dependent
cache-projectors no
coords-type Lattice
core-overlap-check vector
coulomb-interaction Slab 001
coulomb-truncation-embed 0 0 0.5
davidson-band-ratio 1.1
density-of-states Etol 1.000000e-06 Esigma 0.000000e+00 \
		Complete \
	Total \
		Occupied \
	Total
dump End State IonicPositions Lattice ElecDensity CoreDensity EigStats DOS
dump Electronic State Forces
dump Ionic State IonicPositions Forces Lattice DOS
dump-interval Electronic 8
dump-interval Ionic 4
dump-name X.$var
elec-cutoff 10
elec-eigen-algo Davidson
elec-ex-corr gga-PBE
elec-smearing Fermi 0.0095
electronic-minimize  \
	dirUpdateScheme      FletcherReeves \
	linminMethod         DirUpdateRecommended \
	nIterations          2000 \
	history              15 \
	knormThreshold       0 \
	energyDiffThreshold  1e-06 \
	nEnergyDiff          2 \
	alphaTstart          1 \
	alphaTmin            1e-10 \
	updateTestStepSize   yes \
	alphaTreduceFactor   0.1 \
	alphaTincreaseFactor 3 \
	nAlphaAdjustMax      3 \
	wolfeEnergy          0.0001 \
	wolfeGradient        0.9 \
	fdTest               no
exchange-regularization WignerSeitzTruncated
fluid None
fluid-ex-corr (null) lda-PZ
fluid-gummel-loop 10 1.000000e-05
fluid-minimize  \
	dirUpdateScheme      PolakRibiere \
	linminMethod         DirUpdateRecommended \
	nIterations          100 \
	history              15 \
	knormThreshold       0 \
	energyDiffThreshold  0 \
	nEnergyDiff          2 \
	alphaTstart          1 \
	alphaTmin            1e-10 \
	updateTestStepSize   yes \
	alphaTreduceFactor   0.1 \
	alphaTincreaseFactor 3 \
	nAlphaAdjustMax      3 \
	wolfeEnergy          0.0001 \
	wolfeGradient        0.9 \
	fdTest               no
fluid-solvent H2O 55.338 ScalarEOS \
	epsBulk 78.4 \
	pMol 0.92466 \
	epsInf 1.77 \
	Pvap 1.06736e-10 \
	sigmaBulk 4.62e-05 \
	Rvdw 2.61727 \
	Res 1.42 \
	tauNuc 343133 \
	poleEl 15 7 1
forces-output-coords Positions
initial-state X.$var
ion Na   0.000000000000000   0.000000000000000   0.224720000000000 1
ion Na   0.500000000000000   0.500000000000000   0.264050000000000 1
ion Na   0.000000000000000   0.000000000000000   0.303370000000000 1
ion Na   0.500000000000000   0.500000000000000   0.342700000000000 1
ion Na   0.000000000000000   0.000000000000000   0.382020000000000 1
ion Na   0.500000000000000   0.500000000000000   0.421350000000000 1
ion Na   0.000000000000000   0.000000000000000   0.460670000000000 1
ion Na   0.500000000000000   0.500000000000000   0.500000000000000 1
ion Na   0.000000000000000   0.000000000000000   0.539330000000000 1
ion Na   0.500000000000000   0.500000000000000   0.578650000000000 1
ion Na   0.000000000000000   0.000000000000000   0.617980000000000 1
ion Na   0.500000000000000   0.500000000000000   0.657300000000000 1
ion Na   0.000000000000000   0.000000000000000   0.696630000000000 1
ion Na   0.500000000000000   0.500000000000000   0.735950000000000 1
ion Na   0.000000000000000   0.000000000000000   0.775280000000000 1
ion-species SG15/$ID_ONCV_PBE.upf
ion-width 0
ionic-minimize  \
	dirUpdateScheme      L-BFGS \
	linminMethod         DirUpdateRecommended \
	nIterations          0 \
	history              15 \
	knormThreshold       0.0001 \
	energyDiffThreshold  1e-06 \
	nEnergyDiff          2 \
	alphaTstart          1 \
	alphaTmin            1e-10 \
	updateTestStepSize   yes \
	alphaTreduceFactor   0.1 \
	alphaTincreaseFactor 3 \
	nAlphaAdjustMax      3 \
	wolfeEnergy          0.0001 \
	wolfeGradient        0.9 \
	fdTest               no
kpoint   0.000000000000   0.000000000000   0.000000000000  1.00000000000000
kpoint-folding 11 11 1 
latt-move-scale 1 1 1
latt-scale 1.88973 1.88973 1.88973 
lattice  \
	   4.199920000000001   -0.000000000000000   -0.000000000000000  \
	   0.000000000000000    4.199920000000001   -0.000000000000000  \
	   0.000000000000000    0.000000000000000   53.399399999999993 
lattice-minimize  \
	dirUpdateScheme      L-BFGS \
	linminMethod         DirUpdateRecommended \
	nIterations          0 \
	history              15 \
	knormThreshold       0 \
	energyDiffThreshold  1e-06 \
	nEnergyDiff          2 \
	alphaTstart          1 \
	alphaTmin            1e-10 \
	updateTestStepSize   yes \
	alphaTreduceFactor   0.1 \
	alphaTincreaseFactor 3 \
	nAlphaAdjustMax      3 \
	wolfeEnergy          0.0001 \
	wolfeGradient        0.9 \
	fdTest               no
lcao-params -1 1e-06 0.0095
pcm-variant GLSSA13
spintype no-spin
subspace-rotation-factor 1 yes
symmetries automatic
symmetry-threshold 0.0001



---------- Setting up symmetries ----------

Found 16 point-group symmetries of the bravais lattice
Found 16 space-group symmetries with basis
Applied RMS atom displacement 0 bohrs to make symmetries exact.

---------- Initializing the Grid ----------
R = 
[      7.93671            0            0  ]
[            0      7.93671            0  ]
[            0            0       100.91  ]
unit cell volume = 6356.49
G =
[   0.791661          0          0  ]
[         -0   0.791661          0  ]
[          0         -0   0.062265  ]
Minimum fftbox size, Smin = [  24  24  288  ]
Chosen fftbox size, S = [  24  24  288  ]

---------- Exchange Correlation functional ----------
Initalized PBE GGA exchange.
Initalized PBE GGA correlation.

---------- Setting up pseudopotentials ----------
Width of ionic core gaussian charges (only for fluid interactions / plotting) set to 0

Reading pseudopotential file '/net/software/testing/software/jdftx/1.7.0-foss-2021b-mkl/share/jdftx/pseudopotentials/SG15/Na_ONCV_PBE.upf':
  'Na' pseudopotential, 'PBE' functional
  Generated using ONCVPSP code by D. R. Hamann
  Author: Martin Schlipf and Francois Gygi  Date: 150915.
  9 valence electrons, 3 orbitals, 4 projectors, 1992 radial grid points, with lMax = 1
  Transforming local potential to a uniform radial grid of dG=0.02 with 813 points.
  Transforming nonlocal projectors to a uniform radial grid of dG=0.02 with 307 points.
    2S    l: 0   occupation:  2.0   eigenvalue: -2.085640
    2P    l: 1   occupation:  6.0   eigenvalue: -1.053708
    3S    l: 0   occupation:  1.0   eigenvalue: -0.100838
  Transforming atomic orbitals to a uniform radial grid of dG=0.02 with 307 points.
  Core radius for overlap checks: 2.01 bohrs.
  Reading pulay file /net/software/testing/software/jdftx/1.7.0-foss-2021b-mkl/share/jdftx/pseudopotentials/SG15/Na_ONCV_PBE.pulay ... using dE_dnG = -1.681960e+00 computed for Ecut = 10.

Initialized 1 species with 15 total atoms.

Folded 1 k-points by 11x11x1 to 121 k-points.

---------- Setting up k-points, bands, fillings ----------
Reduced to 21 k-points under symmetry. 
Computing the number of bands and number of electrons
Calculating initial fillings.
nElectrons: 135.000000   nBands: 75   nStates: 21

----- Setting up reduced wavefunction bases (one per k-point) -----
average nbasis = 9600.025 , ideal nbasis = 9600.894

----- Initializing Supercell corresponding to k-point mesh -----
Lattice vector linear combinations in supercell:
[  11   0   0  ]
[   0  11   0  ]
[   0   0   1  ]
Supercell lattice vectors:
[  87.3039  0  0  ]
[  0  87.3039  0  ]
[  0  0  100.91  ]

---------- Setting up coulomb interaction ----------
Setting up double-sized grid for truncated Coulomb potentials:
R = 
[      7.93671            0            0  ]
[            0      7.93671            0  ]
[            0            0      201.821  ]
unit cell volume = 12713
G =
[   0.791661          0          0  ]
[         -0   0.791661          0  ]
[          0         -0  0.0311325  ]
Chosen fftbox size, S = [  24  24  576  ]
Integer grid location selected as the embedding center:
   Grid: [  0  0  144  ]
   Lattice: [  0  0  0.5  ]
   Cartesian: [  0  0  50.4552  ]
Constructing Wigner-Seitz cell: 6 faces (6 quadrilaterals, 0 hexagons)
Range-separation parameter for embedded mesh potentials due to point charges: 0.746761 bohrs.
Initialized slab truncation along lattice direction 001

---------- Setting up 2D ewald sum ----------
Optimum gaussian width for ewald sums = 4.734710 bohr.
Real space sums over 225 unit cells with max indices [  7  7  0  ]
Reciprocal space sums over 81 terms with max indices [  4  4  0  ]

---------- Allocating electronic variables ----------
Initializing wave functions:  linear combination of atomic orbitals
Na pseudo-atom occupations:   s ( 2 1 )  p ( 6 )
	FillingsUpdate:  mu: +0.242309930  nElectrons: 135.000000
LCAOMinimize: Iter:   0  F: -625.0524997850284308  |grad|_K:  6.621e-03  alpha:  1.000e+00
LCAOMinimize: 	Step increased F by 4.465623e-01, reducing alpha to 9.049975e-03.
	FillingsUpdate:  mu: +0.112339291  nElectrons: 135.000000
LCAOMinimize: Iter:   1  F: -625.0919457756280053  |grad|_K:  4.224e-03  alpha:  9.050e-03  linmin: -2.119e-01  cgtest:  9.906e-01  t[s]:      2.47
LCAOMinimize: Encountered beta<0, resetting CG.
	FillingsUpdate:  mu: -0.118001689  nElectrons: 135.000000
LCAOMinimize: Iter:   2  F: -625.1195494424154049  |grad|_K:  9.702e-04  alpha:  2.581e-02  linmin:  1.891e-02  cgtest: -1.095e-01  t[s]:      3.31
LCAOMinimize: 	Predicted alpha/alphaT>3.000000, increasing alphaT to 7.743319e-02.
	FillingsUpdate:  mu: -0.159820729  nElectrons: 135.000000
LCAOMinimize: Iter:   3  F: -625.1255083426653982  |grad|_K:  4.826e-04  alpha:  1.081e-01  linmin:  1.449e-03  cgtest:  1.650e-01  t[s]:      4.35
	FillingsUpdate:  mu: -0.124487363  nElectrons: 135.000000
LCAOMinimize: Iter:   4  F: -625.1266067686068482  |grad|_K:  6.855e-04  alpha:  7.816e-02  linmin:  7.678e-06  cgtest:  1.118e-02  t[s]:      5.16
	FillingsUpdate:  mu: -0.139643389  nElectrons: 135.000000
LCAOMinimize: Iter:   5  F: -625.1307493798383348  |grad|_K:  3.567e-04  alpha:  1.444e-01  linmin: -4.339e-04  cgtest: -8.023e-02  t[s]:      6.00
	FillingsUpdate:  mu: -0.159535673  nElectrons: 135.000000
LCAOMinimize: Iter:   6  F: -625.1322399021025831  |grad|_K:  2.196e-04  alpha:  1.902e-01  linmin:  2.188e-06  cgtest: -9.590e-02  t[s]:      6.82
	FillingsUpdate:  mu: -0.144393678  nElectrons: 135.000000
LCAOMinimize: Iter:   7  F: -625.1323957516433438  |grad|_K:  2.159e-04  alpha:  5.324e-02  linmin: -8.668e-06  cgtest: -1.609e-03  t[s]:      7.55
	FillingsUpdate:  mu: -0.142669212  nElectrons: 135.000000
LCAOMinimize: Iter:   8  F: -625.1326279981096832  |grad|_K:  2.359e-05  alpha:  8.214e-02  linmin:  2.701e-04  cgtest: -4.438e-02  t[s]:      8.28
	FillingsUpdate:  mu: -0.144528921  nElectrons: 135.000000
LCAOMinimize: Iter:   9  F: -625.1326307510131528  |grad|_K:  2.616e-05  alpha:  8.176e-02  linmin:  1.831e-06  cgtest:  1.872e-03  t[s]:      9.06
	FillingsUpdate:  mu: -0.143868123  nElectrons: 135.000000
LCAOMinimize: Iter:  10  F: -625.1326326124188881  |grad|_K:  1.142e-05  alpha:  4.484e-02  linmin: -5.792e-06  cgtest: -2.432e-03  t[s]:      9.80
LCAOMinimize: 	Predicted alpha/alphaT>3.000000, increasing alphaT to 1.345077e-01.
	FillingsUpdate:  mu: -0.143078479  nElectrons: 135.000000
LCAOMinimize: Iter:  11  F: -625.1326351241757493  |grad|_K:  9.435e-06  alpha:  3.177e-01  linmin: -4.353e-06  cgtest: -3.182e-04  t[s]:     10.79
	FillingsUpdate:  mu: -0.143532646  nElectrons: 135.000000
LCAOMinimize: Iter:  12  F: -625.1326352848946044  |grad|_K:  4.705e-06  alpha:  2.959e-02  linmin: -3.644e-05  cgtest:  1.037e-03  t[s]:     11.52
LCAOMinimize: 	Predicted alpha/alphaT>3.000000, increasing alphaT to 8.876198e-02.
	FillingsUpdate:  mu: -0.143720797  nElectrons: 135.000000
LCAOMinimize: Iter:  13  F: -625.1326355096661018  |grad|_K:  3.602e-06  alpha:  1.672e-01  linmin: -4.915e-05  cgtest:  2.616e-04  t[s]:     12.50
LCAOMinimize: Converged (|Delta F|<1.000000e-06 for 2 iters).


---- Citations for features of the code used in this run ----

   Software package:
      R. Sundararaman, K. Letchworth-Weaver, K.A. Schwarz, D. Gunceler, Y. Ozhabes and T.A. Arias, 'JDFTx: software for joint density-functional theory', SoftwareX 6, 278 (2017)

   gga-PBE exchange-correlation functional:
      J.P. Perdew, K. Burke and M. Ernzerhof, Phys. Rev. Lett. 77, 3865 (1996)

   Pseudopotentials:
      M Schlipf and F Gygi, Comput. Phys. Commun. 196, 36 (2015)

   Truncated Coulomb potentials:
      R. Sundararaman and T.A. Arias, Phys. Rev. B 87, 165122 (2013)

   Total energy minimization with Auxiliary Hamiltonian:
      C. Freysoldt, S. Boeck, and J. Neugebauer, Phys. Rev. B 79, 241103(R) (2009)

   Linear-tetrahedron sampling for density of states:
      G. Lehmann and M. Taut, Phys. status solidi (b) 54, 469 (1972)

This list may not be complete. Please suggest additional citations or
report any other bugs at https://github.com/shankar1729/jdftx/issues

Initialization completed successfully at t[s]:     12.69


-------- Electronic minimization -----------
	FillingsUpdate:  mu: -0.143720797  nElectrons: 135.000000
ElecMinimize: Iter:   0  F: -625.132635509702482  |grad|_K:  4.494e-04  alpha:  1.000e+00
	FillingsUpdate:  mu: -0.126671395  nElectrons: 135.000000
	SubspaceRotationAdjust: set factor to 1
ElecMinimize: Iter:   1  F: -626.025452894342720  |grad|_K:  1.145e-04  alpha:  2.921e-01  linmin:  2.615e-03  t[s]:     14.66
	FillingsUpdate:  mu: -0.210352838  nElectrons: 135.000000
	SubspaceRotationAdjust: set factor to 0.61
ElecMinimize: Iter:   2  F: -626.091605790499216  |grad|_K:  1.117e-04  alpha:  3.339e-01  linmin:  2.550e-05  t[s]:     15.83
	FillingsUpdate:  mu: -0.124914065  nElectrons: 135.000000
	SubspaceRotationAdjust: set factor to 0.328
ElecMinimize: Iter:   3  F: -626.097105021108064  |grad|_K:  4.997e-05  alpha:  2.869e-02  linmin: -1.108e-04  t[s]:     17.14
ElecMinimize: 	Predicted alpha/alphaT>3.000000, increasing alphaT to 8.606079e-02.
ElecMinimize: 	Predicted alpha/alphaT>3.000000, increasing alphaT to 2.581824e-01.
	FillingsUpdate:  mu: -0.047576273  nElectrons: 135.000000
	SubspaceRotationAdjust: set factor to 0.202
ElecMinimize: Iter:   4  F: -626.109873376962241  |grad|_K:  7.428e-05  alpha:  3.328e-01  linmin:  6.754e-06  t[s]:     19.05
	FillingsUpdate:  mu: -0.116284444  nElectrons: 135.000000
	SubspaceRotationAdjust: set factor to 0.214
ElecMinimize: Iter:   5  F: -626.118682008024166  |grad|_K:  4.295e-05  alpha:  1.035e-01  linmin: -1.137e-04  t[s]:     20.22
	FillingsUpdate:  mu: -0.196497565  nElectrons: 135.000000
	SubspaceRotationAdjust: set factor to 0.145
ElecMinimize: Iter:   6  F: -626.127131845053782  |grad|_K:  6.213e-05  alpha:  2.995e-01  linmin:  1.485e-04  t[s]:     21.51
	FillingsUpdate:  mu: -0.154369771  nElectrons: 135.000000

Dumping 'X.fillings' ... done
Dumping 'X.wfns' ... done
Dumping 'X.force' ... done
Dumping 'X.eigenvals' ... done
	SubspaceRotationAdjust: set factor to 0.233
ElecMinimize: Iter:   7  F: -626.138621177379832  |grad|_K:  4.539e-05  alpha:  1.981e-01  linmin:  1.506e-06  t[s]:     23.86
	FillingsUpdate:  mu: -0.081929572  nElectrons: 135.000000
	SubspaceRotationAdjust: set factor to 0.192
ElecMinimize: Iter:   8  F: -626.145462776468889  |grad|_K:  4.625e-05  alpha:  2.191e-01  linmin:  6.451e-05  t[s]:     25.25
	FillingsUpdate:  mu: -0.107927863  nElectrons: 135.000000
	SubspaceRotationAdjust: set factor to 0.27
ElecMinimize: Iter:   9  F: -626.152372705873631  |grad|_K:  2.848e-05  alpha:  2.146e-01  linmin:  1.166e-05  t[s]:     26.41
	FillingsUpdate:  mu: -0.144930196  nElectrons: 135.000000
	SubspaceRotationAdjust: set factor to 0.213
ElecMinimize: Iter:  10  F: -626.155478823526437  |grad|_K:  3.123e-05  alpha:  2.528e-01  linmin:  2.546e-04  t[s]:     27.72
	FillingsUpdate:  mu: -0.107448744  nElectrons: 135.000000
	SubspaceRotationAdjust: set factor to 0.181
ElecMinimize: Iter:  11  F: -626.157829483097430  |grad|_K:  1.790e-05  alpha:  1.590e-01  linmin: -3.384e-05  t[s]:     28.91
	FillingsUpdate:  mu: -0.091464555  nElectrons: 135.000000
	SubspaceRotationAdjust: set factor to 0.191
ElecMinimize: Iter:  12  F: -626.159643296853460  |grad|_K:  1.828e-05  alpha:  3.735e-01  linmin:  2.961e-05  t[s]:     30.03
	FillingsUpdate:  mu: -0.119262994  nElectrons: 135.000000
	SubspaceRotationAdjust: set factor to 0.143
ElecMinimize: Iter:  13  F: -626.160749792275169  |grad|_K:  1.527e-05  alpha:  2.171e-01  linmin: -1.357e-05  t[s]:     31.17
	FillingsUpdate:  mu: -0.120520641  nElectrons: 135.000000
	SubspaceRotationAdjust: set factor to 0.18
ElecMinimize: Iter:  14  F: -626.162141902452277  |grad|_K:  1.360e-05  alpha:  3.926e-01  linmin:  6.706e-06  t[s]:     32.30
	FillingsUpdate:  mu: -0.100634180  nElectrons: 135.000000

Dumping 'X.fillings' ... done
Dumping 'X.wfns' ... done
Dumping 'X.force' ... done
Dumping 'X.eigenvals' ... done
	SubspaceRotationAdjust: set factor to 0.146
ElecMinimize: Iter:  15  F: -626.163058513083456  |grad|_K:  1.396e-05  alpha:  3.259e-01  linmin:  1.550e-05  t[s]:     33.62
	FillingsUpdate:  mu: -0.118091055  nElectrons: 135.000000
	SubspaceRotationAdjust: set factor to 0.126
	SubspaceRotationAdjust: resetting CG because factor has changed by 0.1265
ElecMinimize: 	State modified externally: resetting search direction.
ElecMinimize: Iter:  16  F: -626.163862325030323  |grad|_K:  9.916e-06  alpha:  2.722e-01
	FillingsUpdate:  mu: -0.111333855  nElectrons: 135.000000
	SubspaceRotationAdjust: set factor to 0.202
ElecMinimize: Iter:  17  F: -626.164351440647351  |grad|_K:  6.477e-06  alpha:  3.278e-01  linmin:  7.166e-06  t[s]:     36.50
	FillingsUpdate:  mu: -0.117992519  nElectrons: 135.000000
	SubspaceRotationAdjust: set factor to 0.183
ElecMinimize: Iter:  18  F: -626.164689547705962  |grad|_K:  6.457e-06  alpha:  5.313e-01  linmin:  1.875e-05  t[s]:     37.74
	FillingsUpdate:  mu: -0.106258467  nElectrons: 135.000000
	SubspaceRotationAdjust: set factor to 0.129
ElecMinimize: Iter:  19  F: -626.164883259971816  |grad|_K:  6.565e-06  alpha:  3.055e-01  linmin: -1.548e-05  t[s]:     38.97
	FillingsUpdate:  mu: -0.115908055  nElectrons: 135.000000
	SubspaceRotationAdjust: set factor to 0.0995
ElecMinimize: Iter:  20  F: -626.165095567928461  |grad|_K:  5.185e-06  alpha:  3.243e-01  linmin:  1.628e-05  t[s]:     40.10
	FillingsUpdate:  mu: -0.116956298  nElectrons: 135.000000
	SubspaceRotationAdjust: set factor to 0.11
ElecMinimize: Iter:  21  F: -626.165329838589059  |grad|_K:  5.220e-06  alpha:  5.760e-01  linmin:  9.450e-06  t[s]:     41.28
	FillingsUpdate:  mu: -0.111359390  nElectrons: 135.000000
	SubspaceRotationAdjust: set factor to 0.0976
ElecMinimize: Iter:  22  F: -626.165529244114737  |grad|_K:  4.725e-06  alpha:  4.825e-01  linmin:  9.961e-06  t[s]:     42.50
	FillingsUpdate:  mu: -0.119452620  nElectrons: 135.000000

Dumping 'X.fillings' ... done
Dumping 'X.wfns' ... done
Dumping 'X.force' ... done
Dumping 'X.eigenvals' ... done
	SubspaceRotationAdjust: set factor to 0.0768
ElecMinimize: Iter:  23  F: -626.165700177331587  |grad|_K:  4.257e-06  alpha:  5.055e-01  linmin:  2.520e-05  t[s]:     43.78
	FillingsUpdate:  mu: -0.115139327  nElectrons: 135.000000
	SubspaceRotationAdjust: set factor to 0.0775
ElecMinimize: Iter:  24  F: -626.165811457569816  |grad|_K:  3.180e-06  alpha:  4.060e-01  linmin:  6.548e-06  t[s]:     44.99
	FillingsUpdate:  mu: -0.112302357  nElectrons: 135.000000
	SubspaceRotationAdjust: set factor to 0.0782
ElecMinimize: Iter:  25  F: -626.165889481903605  |grad|_K:  2.936e-06  alpha:  5.092e-01  linmin:  1.658e-05  t[s]:     46.36
	FillingsUpdate:  mu: -0.116298390  nElectrons: 135.000000
	SubspaceRotationAdjust: set factor to 0.0718
ElecMinimize: Iter:  26  F: -626.165954469451208  |grad|_K:  2.687e-06  alpha:  4.973e-01  linmin:  1.808e-05  t[s]:     47.59
	FillingsUpdate:  mu: -0.116350875  nElectrons: 135.000000
	SubspaceRotationAdjust: set factor to 0.0763
ElecMinimize: Iter:  27  F: -626.166022367678806  |grad|_K:  2.560e-06  alpha:  6.212e-01  linmin:  3.006e-05  t[s]:     48.79
	FillingsUpdate:  mu: -0.114513253  nElectrons: 135.000000
	SubspaceRotationAdjust: set factor to 0.074
ElecMinimize: Iter:  28  F: -626.166069251821227  |grad|_K:  2.099e-06  alpha:  4.718e-01  linmin:  6.541e-06  t[s]:     50.02
	FillingsUpdate:  mu: -0.115333551  nElectrons: 135.000000
	SubspaceRotationAdjust: set factor to 0.0768
ElecMinimize: Iter:  29  F: -626.166098081608425  |grad|_K:  1.676e-06  alpha:  4.311e-01  linmin:  9.777e-06  t[s]:     51.21
	FillingsUpdate:  mu: -0.115795634  nElectrons: 135.000000
	SubspaceRotationAdjust: set factor to 0.0788
ElecMinimize: Iter:  30  F: -626.166121673358248  |grad|_K:  1.586e-06  alpha:  5.534e-01  linmin:  1.242e-05  t[s]:     52.34
	FillingsUpdate:  mu: -0.115049951  nElectrons: 135.000000

Dumping 'X.fillings' ... done
Dumping 'X.wfns' ... done
Dumping 'X.force' ... done
Dumping 'X.eigenvals' ... done
	SubspaceRotationAdjust: set factor to 0.082
ElecMinimize: Iter:  31  F: -626.166141080702232  |grad|_K:  1.252e-06  alpha:  5.088e-01  linmin:  4.638e-06  t[s]:     53.70
	FillingsUpdate:  mu: -0.115040333  nElectrons: 135.000000
	SubspaceRotationAdjust: set factor to 0.0875
ElecMinimize: Iter:  32  F: -626.166150710794682  |grad|_K:  1.009e-06  alpha:  4.049e-01  linmin:  2.332e-06  t[s]:     54.88
	FillingsUpdate:  mu: -0.114838851  nElectrons: 135.000000
	SubspaceRotationAdjust: set factor to 0.0917
ElecMinimize: Iter:  33  F: -626.166160495349914  |grad|_K:  1.085e-06  alpha:  6.332e-01  linmin:  3.019e-06  t[s]:     56.01
	FillingsUpdate:  mu: -0.114637775  nElectrons: 135.000000
	SubspaceRotationAdjust: set factor to 0.0955
ElecMinimize: Iter:  34  F: -626.166170491358002  |grad|_K:  1.069e-06  alpha:  5.596e-01  linmin:  1.154e-06  t[s]:     57.26
	FillingsUpdate:  mu: -0.114968443  nElectrons: 135.000000
	SubspaceRotationAdjust: set factor to 0.0981
ElecMinimize: Iter:  35  F: -626.166180641341043  |grad|_K:  1.070e-06  alpha:  5.854e-01  linmin:  2.499e-06  t[s]:     58.43
	FillingsUpdate:  mu: -0.114512055  nElectrons: 135.000000
	SubspaceRotationAdjust: set factor to 0.0984
ElecMinimize: Iter:  36  F: -626.166188914282429  |grad|_K:  8.917e-07  alpha:  4.763e-01  linmin:  7.971e-07  t[s]:     59.56
	FillingsUpdate:  mu: -0.114823573  nElectrons: 135.000000
	SubspaceRotationAdjust: set factor to 0.101
ElecMinimize: Iter:  37  F: -626.166194846947747  |grad|_K:  7.697e-07  alpha:  4.917e-01  linmin:  2.700e-06  t[s]:     60.69
	FillingsUpdate:  mu: -0.115203758  nElectrons: 135.000000
	SubspaceRotationAdjust: set factor to 0.102
ElecMinimize: Iter:  38  F: -626.166199526695664  |grad|_K:  6.685e-07  alpha:  5.207e-01  linmin:  2.892e-06  t[s]:     61.82
	FillingsUpdate:  mu: -0.114837367  nElectrons: 135.000000

Dumping 'X.fillings' ... done
Dumping 'X.wfns' ... done
Dumping 'X.force' ... done
Dumping 'X.eigenvals' ... done
	SubspaceRotationAdjust: set factor to 0.0996
ElecMinimize: Iter:  39  F: -626.166202530372857  |grad|_K:  5.742e-07  alpha:  4.431e-01  linmin:  1.070e-06  t[s]:     63.16
	FillingsUpdate:  mu: -0.115150785  nElectrons: 135.000000
	SubspaceRotationAdjust: set factor to 0.1
ElecMinimize: Iter:  40  F: -626.166205213377111  |grad|_K:  5.154e-07  alpha:  5.362e-01  linmin:  2.855e-06  t[s]:     64.29
	FillingsUpdate:  mu: -0.115094389  nElectrons: 135.000000
	SubspaceRotationAdjust: set factor to 0.103
ElecMinimize: Iter:  41  F: -626.166207414368955  |grad|_K:  5.142e-07  alpha:  5.461e-01  linmin:  3.611e-06  t[s]:     65.42
	FillingsUpdate:  mu: -0.114890886  nElectrons: 135.000000
	SubspaceRotationAdjust: set factor to 0.104
ElecMinimize: Iter:  42  F: -626.166209610077203  |grad|_K:  4.793e-07  alpha:  5.474e-01  linmin: -1.985e-06  t[s]:     66.54
	FillingsUpdate:  mu: -0.115127650  nElectrons: 135.000000
	SubspaceRotationAdjust: set factor to 0.107
ElecMinimize: Iter:  43  F: -626.166211268613210  |grad|_K:  4.191e-07  alpha:  4.757e-01  linmin:  3.264e-06  t[s]:     67.93
	FillingsUpdate:  mu: -0.115013805  nElectrons: 135.000000
	SubspaceRotationAdjust: set factor to 0.109
ElecMinimize: Iter:  44  F: -626.166212747055170  |grad|_K:  4.142e-07  alpha:  5.548e-01  linmin:  5.182e-06  t[s]:     69.27
	FillingsUpdate:  mu: -0.115184594  nElectrons: 135.000000
	SubspaceRotationAdjust: set factor to 0.111
ElecMinimize: Iter:  45  F: -626.166214253579824  |grad|_K:  4.160e-07  alpha:  5.791e-01  linmin:  5.768e-06  t[s]:     70.64
	FillingsUpdate:  mu: -0.115111810  nElectrons: 135.000000
	SubspaceRotationAdjust: set factor to 0.116
ElecMinimize: Iter:  46  F: -626.166215557620603  |grad|_K:  3.743e-07  alpha:  4.968e-01  linmin:  3.552e-06  t[s]:     71.77
	FillingsUpdate:  mu: -0.114955726  nElectrons: 135.000000

Dumping 'X.fillings' ... done
Dumping 'X.wfns' ... done
Dumping 'X.force' ... done
Dumping 'X.eigenvals' ... done
	SubspaceRotationAdjust: set factor to 0.119
ElecMinimize: Iter:  47  F: -626.166216762202566  |grad|_K:  3.758e-07  alpha:  5.668e-01  linmin:  2.279e-06  t[s]:     73.24
	FillingsUpdate:  mu: -0.115083390  nElectrons: 135.000000
	SubspaceRotationAdjust: set factor to 0.119
ElecMinimize: Iter:  48  F: -626.166217965988380  |grad|_K:  3.698e-07  alpha:  5.617e-01  linmin: -1.104e-06  t[s]:     74.90
	FillingsUpdate:  mu: -0.114786864  nElectrons: 135.000000
	SubspaceRotationAdjust: set factor to 0.116
ElecMinimize: Iter:  49  F: -626.166219003538913  |grad|_K:  3.482e-07  alpha:  4.999e-01  linmin:  3.837e-06  t[s]:     76.22
	FillingsUpdate:  mu: -0.115099729  nElectrons: 135.000000
	SubspaceRotationAdjust: set factor to 0.112
ElecMinimize: Iter:  50  F: -626.166219908718858  |grad|_K:  3.049e-07  alpha:  4.921e-01  linmin:  1.426e-06  t[s]:     77.43
	FillingsUpdate:  mu: -0.114920632  nElectrons: 135.000000
	SubspaceRotationAdjust: set factor to 0.11
ElecMinimize: Iter:  51  F: -626.166220551866104  |grad|_K:  2.592e-07  alpha:  4.560e-01  linmin: -7.496e-06  t[s]:     78.65
ElecMinimize: Converged (|Delta F|<1.000000e-06 for 2 iters).
Setting wave functions to eigenvectors of Hamiltonian

# Ionic positions in lattice coordinates:
ion Na   0.000000000000000   0.000000000000000   0.224720000000000 1
ion Na   0.500000000000000   0.500000000000000   0.264050000000000 1
ion Na   0.000000000000000   0.000000000000000   0.303370000000000 1
ion Na   0.500000000000000   0.500000000000000   0.342700000000000 1
ion Na   0.000000000000000   0.000000000000000   0.382020000000000 1
ion Na   0.500000000000000   0.500000000000000   0.421350000000000 1
ion Na   0.000000000000000   0.000000000000000   0.460670000000000 1
ion Na   0.500000000000000   0.500000000000000   0.500000000000000 1
ion Na   0.000000000000000   0.000000000000000   0.539330000000000 1
ion Na   0.500000000000000   0.500000000000000   0.578650000000000 1
ion Na   0.000000000000000   0.000000000000000   0.617980000000000 1
ion Na   0.500000000000000   0.500000000000000   0.657300000000000 1
ion Na   0.000000000000000   0.000000000000000   0.696630000000000 1
ion Na   0.500000000000000   0.500000000000000   0.735950000000000 1
ion Na   0.000000000000000   0.000000000000000   0.775280000000000 1

# Forces in Lattice coordinates:
force Na   0.000000000000000  -0.000000000000000   0.041330850371658 1
force Na  -0.000000000000000   0.000000000000000   0.032554387745332 1
force Na  -0.000000000000000  -0.000000000000000   0.046836344020024 1
force Na   0.000000000000000   0.000000000000000  -0.003915273315965 1
force Na   0.000000000000000  -0.000000000000000   0.022889389781906 1
force Na   0.000000000000000  -0.000000000000000   0.032114628286012 1
force Na  -0.000000000000000   0.000000000000000  -0.016627203744630 1
force Na   0.000000000000000  -0.000000000000000   0.000000000000000 1
force Na  -0.000000000000000   0.000000000000000   0.016627203744630 1
force Na   0.000000000000000  -0.000000000000000  -0.032114628286467 1
force Na   0.000000000000000  -0.000000000000000  -0.022889389780996 1
force Na   0.000000000000000   0.000000000000000   0.003915273315055 1
force Na  -0.000000000000000  -0.000000000000000  -0.046836344019115 1
force Na  -0.000000000000000   0.000000000000000  -0.032554387745332 1
force Na  -0.000000000000000   0.000000000000000  -0.041330850369840 1

# Energy components:
   Eewald =   -18272.2511570676142583
       EH =   -17787.1710419014052604
     Eloc =    35397.9351257042944781
      Enl =     -173.2368948123374537
   Epulay =       -0.0034507608292750
      Exc =      -89.6678236133506061
       KE =      298.2836649152020527
-------------------------------------
     Etot =     -626.1115775360403859
       TS =        0.0546430158257692
-------------------------------------
        F =     -626.1662205518661040

IonicMinimize: Iter:   0  F: -626.166220551866104  |grad|_K:  1.724e-04  t[s]:     78.87
IonicMinimize: None of the convergence criteria satisfied after 0 iterations.

#--- Lowdin population analysis ---
# oxidation-state Na +0.070 +0.046 +0.038 +0.049 +0.045 +0.046 +0.048 +0.047 +0.048 +0.046 +0.045 +0.049 +0.038 +0.046 +0.070


Dumping 'X.fillings' ... done
Dumping 'X.wfns' ... done
Dumping 'X.ionpos' ... done
Dumping 'X.lattice' ... done
Dumping 'X.n' ... done
Dumping 'X.eigenvals' ... done
Dumping 'X.eigStats' ... 
	eMin: -2.309039 at state 5 ( [ +0.000000 +0.454545 +0.000000 ] spin 0 )
	HOMO: -0.115322 at state 1 ( [ +0.000000 +0.090909 +0.000000 ] spin 0 )
	mu  : -0.114921
	LUMO: -0.114277 at state 9 ( [ +0.090909 +0.363636 +0.000000 ] spin 0 )
	eMax: -0.004025 at state 11 ( [ +0.181818 +0.181818 +0.000000 ] spin 0 )
	HOMO-LUMO gap: +0.001044
	Optical gap  : +0.003226 at state 17 ( [ +0.272727 +0.454545 +0.000000 ] spin 0 )
Dumping 'X.dos' ... done.
End date and time: Thu Nov  9 00:44:22 2023  (Duration: 0-0:01:19.15)
Done!

*************** JDFTx 1.7.0  ***************

Start date and time: Thu Nov  9 00:44:24 2023
Executable jdftx with command-line: -m -i X.in -o X.out
Running on hosts (process indices):  ac0710 (0-20)
Divided in process groups (process indices):  0 (0)  1 (1)  2 (2)  3 (3)  4 (4)  5 (5)  6 (6)  7 (7)  8 (8)  9 (9)  10 (10)  11 (11)  12 (12)  13 (13)  14 (14)  15 (15)  16 (16)  17 (17)  18 (18)  19 (19)  20 (20)
Resource initialization completed at t[s]:      0.01
Run totals: 21 processes, 21 threads, 0 GPUs


Input parsed successfully to the following command list (including defaults):

basis kpoint-dependent
cache-projectors no
coords-type Lattice
core-overlap-check vector
coulomb-interaction Slab 001
coulomb-truncation-embed 0 0 0.5
davidson-band-ratio 1.1
density-of-states Etol 1.000000e-06 Esigma 0.000000e+00 \
		Complete \
	Total \
		Occupied \
	Total
dump End State IonicPositions Lattice ElecDensity CoreDensity EigStats DOS
dump Electronic State Forces
dump Ionic State IonicPositions Forces Lattice DOS
dump-interval Electronic 8
dump-interval Ionic 4
dump-name X.$var
elec-cutoff 20
elec-eigen-algo Davidson
elec-ex-corr gga-PBE
elec-smearing Fermi 0.0095
electronic-minimize  \
	dirUpdateScheme      FletcherReeves \
	linminMethod         DirUpdateRecommended \
	nIterations          2000 \
	history              15 \
	knormThreshold       0 \
	energyDiffThreshold  1e-07 \
	nEnergyDiff          2 \
	alphaTstart          1 \
	alphaTmin            1e-10 \
	updateTestStepSize   yes \
	alphaTreduceFactor   0.1 \
	alphaTincreaseFactor 3 \
	nAlphaAdjustMax      3 \
	wolfeEnergy          0.0001 \
	wolfeGradient        0.9 \
	fdTest               no
exchange-regularization WignerSeitzTruncated
fluid None
fluid-ex-corr (null) lda-PZ
fluid-gummel-loop 10 1.000000e-05
fluid-minimize  \
	dirUpdateScheme      PolakRibiere \
	linminMethod         DirUpdateRecommended \
	nIterations          100 \
	history              15 \
	knormThreshold       0 \
	energyDiffThreshold  0 \
	nEnergyDiff          2 \
	alphaTstart          1 \
	alphaTmin            1e-10 \
	updateTestStepSize   yes \
	alphaTreduceFactor   0.1 \
	alphaTincreaseFactor 3 \
	nAlphaAdjustMax      3 \
	wolfeEnergy          0.0001 \
	wolfeGradient        0.9 \
	fdTest               no
fluid-solvent H2O 55.338 ScalarEOS \
	epsBulk 78.4 \
	pMol 0.92466 \
	epsInf 1.77 \
	Pvap 1.06736e-10 \
	sigmaBulk 4.62e-05 \
	Rvdw 2.61727 \
	Res 1.42 \
	tauNuc 343133 \
	poleEl 15 7 1
forces-output-coords Positions
ion Na   0.000000000000000   0.000000000000000   0.224720000000000 1
ion Na   0.500000000000000   0.500000000000000   0.264050000000000 1
ion Na   0.000000000000000   0.000000000000000   0.303370000000000 1
ion Na   0.500000000000000   0.500000000000000   0.342700000000000 1
ion Na   0.000000000000000   0.000000000000000   0.382020000000000 1
ion Na   0.500000000000000   0.500000000000000   0.421350000000000 1
ion Na   0.000000000000000   0.000000000000000   0.460670000000000 1
ion Na   0.500000000000000   0.500000000000000   0.500000000000000 1
ion Na   0.000000000000000   0.000000000000000   0.539330000000000 1
ion Na   0.500000000000000   0.500000000000000   0.578650000000000 1
ion Na   0.000000000000000   0.000000000000000   0.617980000000000 1
ion Na   0.500000000000000   0.500000000000000   0.657300000000000 1
ion Na   0.000000000000000   0.000000000000000   0.696630000000000 1
ion Na   0.500000000000000   0.500000000000000   0.735950000000000 1
ion Na   0.000000000000000   0.000000000000000   0.775280000000000 1
ion-species SG15/$ID_ONCV_PBE.upf
ion-width 0
ionic-minimize  \
	dirUpdateScheme      L-BFGS \
	linminMethod         DirUpdateRecommended \
	nIterations          0 \
	history              15 \
	knormThreshold       0.0001 \
	energyDiffThreshold  1e-06 \
	nEnergyDiff          2 \
	alphaTstart          1 \
	alphaTmin            1e-10 \
	updateTestStepSize   yes \
	alphaTreduceFactor   0.1 \
	alphaTincreaseFactor 3 \
	nAlphaAdjustMax      3 \
	wolfeEnergy          0.0001 \
	wolfeGradient        0.9 \
	fdTest               no
kpoint   0.000000000000   0.000000000000   0.000000000000  1.00000000000000
kpoint-folding 11 11 1 
latt-move-scale 1 1 1
latt-scale 1 1 1 
lattice  \
	   7.936714821600003   -0.000000000000000   -0.000000000000000  \
	   0.000000000000000    7.936714821600003   -0.000000000000000  \
	   0.000000000000000    0.000000000000000  100.910448161999994 
lattice-minimize  \
	dirUpdateScheme      L-BFGS \
	linminMethod         DirUpdateRecommended \
	nIterations          0 \
	history              15 \
	knormThreshold       0 \
	energyDiffThreshold  1e-06 \
	nEnergyDiff          2 \
	alphaTstart          1 \
	alphaTmin            1e-10 \
	updateTestStepSize   yes \
	alphaTreduceFactor   0.1 \
	alphaTincreaseFactor 3 \
	nAlphaAdjustMax      3 \
	wolfeEnergy          0.0001 \
	wolfeGradient        0.9 \
	fdTest               no
lcao-params -1 1e-06 0.0095
pcm-variant GLSSA13
spintype no-spin
subspace-rotation-factor 1 yes
symmetries automatic
symmetry-threshold 0.0001
wavefunction read X.wfns 75 10.000000



---------- Setting up symmetries ----------

Found 16 point-group symmetries of the bravais lattice
Found 16 space-group symmetries with basis
Applied RMS atom displacement 0 bohrs to make symmetries exact.

---------- Initializing the Grid ----------
R = 
[      7.93671            0            0  ]
[            0      7.93671            0  ]
[            0            0       100.91  ]
unit cell volume = 6356.49
G =
[   0.791661          0          0  ]
[         -0   0.791661          0  ]
[          0         -0   0.062265  ]
Minimum fftbox size, Smin = [  32  32  408  ]
Chosen fftbox size, S = [  32  32  420  ]

---------- Exchange Correlation functional ----------
Initalized PBE GGA exchange.
Initalized PBE GGA correlation.

---------- Setting up pseudopotentials ----------
Width of ionic core gaussian charges (only for fluid interactions / plotting) set to 0

Reading pseudopotential file '/net/software/testing/software/jdftx/1.7.0-foss-2021b-mkl/share/jdftx/pseudopotentials/SG15/Na_ONCV_PBE.upf':
  'Na' pseudopotential, 'PBE' functional
  Generated using ONCVPSP code by D. R. Hamann
  Author: Martin Schlipf and Francois Gygi  Date: 150915.
  9 valence electrons, 3 orbitals, 4 projectors, 1992 radial grid points, with lMax = 1
  Transforming local potential to a uniform radial grid of dG=0.02 with 1114 points.
  Transforming nonlocal projectors to a uniform radial grid of dG=0.02 with 432 points.
    2S    l: 0   occupation:  2.0   eigenvalue: -2.085640
    2P    l: 1   occupation:  6.0   eigenvalue: -1.053708
    3S    l: 0   occupation:  1.0   eigenvalue: -0.100838
  Transforming atomic orbitals to a uniform radial grid of dG=0.02 with 432 points.
  Core radius for overlap checks: 2.01 bohrs.
  Reading pulay file /net/software/testing/software/jdftx/1.7.0-foss-2021b-mkl/share/jdftx/pseudopotentials/SG15/Na_ONCV_PBE.pulay ... using dE_dnG = -2.946487e-03 computed for Ecut = 20.

Initialized 1 species with 15 total atoms.

Folded 1 k-points by 11x11x1 to 121 k-points.

---------- Setting up k-points, bands, fillings ----------
Reduced to 21 k-points under symmetry. 
Computing the number of bands and number of electrons
Calculating initial fillings.
nElectrons: 135.000000   nBands: 75   nStates: 21

----- Setting up reduced wavefunction bases (one per k-point) -----
average nbasis = 27157.545 , ideal nbasis = 27155.430

----- Initializing Supercell corresponding to k-point mesh -----
Lattice vector linear combinations in supercell:
[  11   0   0  ]
[   0  11   0  ]
[   0   0   1  ]
Supercell lattice vectors:
[  87.3039  0  0  ]
[  0  87.3039  0  ]
[  0  0  100.91  ]

---------- Setting up coulomb interaction ----------
Setting up double-sized grid for truncated Coulomb potentials:
R = 
[      7.93671            0            0  ]
[            0      7.93671            0  ]
[            0            0      201.821  ]
unit cell volume = 12713
G =
[   0.791661          0          0  ]
[         -0   0.791661          0  ]
[          0         -0  0.0311325  ]
Chosen fftbox size, S = [  32  32  840  ]
Integer grid location selected as the embedding center:
   Grid: [  0  0  210  ]
   Lattice: [  0  0  0.5  ]
   Cartesian: [  0  0  50.4552  ]
Constructing Wigner-Seitz cell: 6 faces (6 quadrilaterals, 0 hexagons)
Range-separation parameter for embedded mesh potentials due to point charges: 0.628283 bohrs.
Initialized slab truncation along lattice direction 001

---------- Setting up 2D ewald sum ----------
Optimum gaussian width for ewald sums = 4.734710 bohr.
Real space sums over 225 unit cells with max indices [  7  7  0  ]
Reciprocal space sums over 81 terms with max indices [  4  4  0  ]

---------- Allocating electronic variables ----------
Initializing wave functions:  reading from 'X.wfns'


---- Citations for features of the code used in this run ----

   Software package:
      R. Sundararaman, K. Letchworth-Weaver, K.A. Schwarz, D. Gunceler, Y. Ozhabes and T.A. Arias, 'JDFTx: software for joint density-functional theory', SoftwareX 6, 278 (2017)

   gga-PBE exchange-correlation functional:
      J.P. Perdew, K. Burke and M. Ernzerhof, Phys. Rev. Lett. 77, 3865 (1996)

   Pseudopotentials:
      M Schlipf and F Gygi, Comput. Phys. Commun. 196, 36 (2015)

   Truncated Coulomb potentials:
      R. Sundararaman and T.A. Arias, Phys. Rev. B 87, 165122 (2013)

   Total energy minimization with Auxiliary Hamiltonian:
      C. Freysoldt, S. Boeck, and J. Neugebauer, Phys. Rev. B 79, 241103(R) (2009)

   Linear-tetrahedron sampling for density of states:
      G. Lehmann and M. Taut, Phys. status solidi (b) 54, 469 (1972)

This list may not be complete. Please suggest additional citations or
report any other bugs at https://github.com/shankar1729/jdftx/issues

Initialization completed successfully at t[s]:      0.95


Setting the auxilliary hamiltonian equal to the subspace hamiltonian.

-------- Electronic minimization -----------
	FillingsUpdate:  mu: -0.083129763  nElectrons: 135.000000
ElecMinimize: Iter:   0  F: -626.131188521288664  |grad|_K:  1.040e-03  alpha:  1.000e+00
	FillingsUpdate:  mu: -0.589575005  nElectrons: 135.000000
	SubspaceRotationAdjust: set factor to 0.733
ElecMinimize: Iter:   1  F: -637.549199235441279  |grad|_K:  5.311e-04  alpha:  2.644e-01  linmin:  8.642e-03  t[s]:     10.86
	FillingsUpdate:  mu: +0.297142231  nElectrons: 135.000000
	SubspaceRotationAdjust: set factor to 0.367
ElecMinimize: Iter:   2  F: -637.906897861351581  |grad|_K:  3.844e-04  alpha:  4.451e-02  linmin:  2.268e-03  t[s]:     15.36
ElecMinimize: 	Predicted alpha/alphaT>3.000000, increasing alphaT to 1.335289e-01.
	FillingsUpdate:  mu: +0.183329002  nElectrons: 135.000000
	SubspaceRotationAdjust: set factor to 0.221
ElecMinimize: Iter:   3  F: -638.791820460582016  |grad|_K:  1.853e-04  alpha:  1.945e-01  linmin: -3.113e-05  t[s]:     21.18
	FillingsUpdate:  mu: -0.126734737  nElectrons: 135.000000
	SubspaceRotationAdjust: set factor to 0.177
ElecMinimize: Iter:   4  F: -638.889544742903695  |grad|_K:  6.576e-05  alpha:  6.282e-02  linmin: -1.323e-03  t[s]:     25.62
ElecMinimize: 	Predicted alpha/alphaT>3.000000, increasing alphaT to 1.884684e-01.
	FillingsUpdate:  mu: -0.224496949  nElectrons: 135.000000
	SubspaceRotationAdjust: set factor to 0.116
	SubspaceRotationAdjust: resetting CG because factor has changed by 0.115731
ElecMinimize: 	State modified externally: resetting search direction.
ElecMinimize: Iter:   5  F: -638.927140915747145  |grad|_K:  4.375e-05  alpha:  1.946e-01
	FillingsUpdate:  mu: -0.081414531  nElectrons: 135.000000
	SubspaceRotationAdjust: set factor to 0.125
ElecMinimize: Iter:   6  F: -638.944905861927623  |grad|_K:  1.567e-05  alpha:  2.170e-01  linmin:  2.905e-04  t[s]:     38.72
	FillingsUpdate:  mu: -0.100489322  nElectrons: 135.000000

Dumping 'X.fillings' ... done
Dumping 'X.wfns' ... done
Dumping 'X.force' ... done
Dumping 'X.eigenvals' ... done
	SubspaceRotationAdjust: set factor to 0.146
ElecMinimize: Iter:   7  F: -638.950457950569444  |grad|_K:  1.174e-05  alpha:  5.315e-01  linmin:  4.018e-05  t[s]:     43.38
	FillingsUpdate:  mu: -0.099314748  nElectrons: 135.000000
	SubspaceRotationAdjust: set factor to 0.175
ElecMinimize: Iter:   8  F: -638.954437245072199  |grad|_K:  1.146e-05  alpha:  6.760e-01  linmin:  9.704e-06  t[s]:     47.67
	FillingsUpdate:  mu: -0.090878354  nElectrons: 135.000000
	SubspaceRotationAdjust: set factor to 0.196
ElecMinimize: Iter:   9  F: -638.958914937047098  |grad|_K:  1.289e-05  alpha:  7.991e-01  linmin:  4.722e-05  t[s]:     51.81
	FillingsUpdate:  mu: -0.124158855  nElectrons: 135.000000
	SubspaceRotationAdjust: set factor to 0.182
ElecMinimize: Iter:  10  F: -638.962958728121862  |grad|_K:  1.210e-05  alpha:  5.548e-01  linmin:  2.123e-05  t[s]:     56.01
	FillingsUpdate:  mu: -0.095781466  nElectrons: 135.000000
	SubspaceRotationAdjust: set factor to 0.122
ElecMinimize: Iter:  11  F: -638.964144106109302  |grad|_K:  8.683e-06  alpha:  1.781e-01  linmin: -2.638e-04  t[s]:     60.09
	FillingsUpdate:  mu: -0.105423148  nElectrons: 135.000000
	SubspaceRotationAdjust: set factor to 0.126
ElecMinimize: Iter:  12  F: -638.965616046910782  |grad|_K:  7.211e-06  alpha:  4.397e-01  linmin:  1.116e-04  t[s]:     64.26
	FillingsUpdate:  mu: -0.111166900  nElectrons: 135.000000
	SubspaceRotationAdjust: set factor to 0.128
ElecMinimize: Iter:  13  F: -638.966448840438602  |grad|_K:  5.801e-06  alpha:  3.834e-01  linmin:  2.672e-05  t[s]:     68.40
	FillingsUpdate:  mu: -0.096010092  nElectrons: 135.000000
	SubspaceRotationAdjust: set factor to 0.0928
ElecMinimize: Iter:  14  F: -638.966871483637078  |grad|_K:  4.454e-06  alpha:  2.939e-01  linmin:  1.191e-05  t[s]:     72.55
	FillingsUpdate:  mu: -0.102675366  nElectrons: 135.000000

Dumping 'X.fillings' ... done
Dumping 'X.wfns' ... done
Dumping 'X.force' ... done
Dumping 'X.eigenvals' ... done
	SubspaceRotationAdjust: set factor to 0.0873
ElecMinimize: Iter:  15  F: -638.967166128420445  |grad|_K:  3.405e-06  alpha:  3.478e-01  linmin:  2.848e-05  t[s]:     77.30
	FillingsUpdate:  mu: -0.104940203  nElectrons: 135.000000
	SubspaceRotationAdjust: set factor to 0.095
ElecMinimize: Iter:  16  F: -638.967351780510171  |grad|_K:  2.581e-06  alpha:  3.753e-01  linmin:  7.138e-06  t[s]:     81.70
	FillingsUpdate:  mu: -0.099050385  nElectrons: 135.000000
	SubspaceRotationAdjust: set factor to 0.0849
ElecMinimize: Iter:  17  F: -638.967458822830736  |grad|_K:  1.971e-06  alpha:  3.755e-01  linmin:  1.038e-05  t[s]:     86.20
	FillingsUpdate:  mu: -0.100790251  nElectrons: 135.000000
	SubspaceRotationAdjust: set factor to 0.0947
ElecMinimize: Iter:  18  F: -638.967533686290494  |grad|_K:  1.853e-06  alpha:  4.503e-01  linmin: -1.436e-06  t[s]:     90.69
	FillingsUpdate:  mu: -0.102326858  nElectrons: 135.000000
	SubspaceRotationAdjust: set factor to 0.107
ElecMinimize: Iter:  19  F: -638.967593043626948  |grad|_K:  1.497e-06  alpha:  4.039e-01  linmin:  4.819e-07  t[s]:     95.16
	FillingsUpdate:  mu: -0.099667567  nElectrons: 135.000000
	SubspaceRotationAdjust: set factor to 0.112
ElecMinimize: Iter:  20  F: -638.967636118214273  |grad|_K:  1.444e-06  alpha:  4.490e-01  linmin: -2.528e-06  t[s]:     99.51
	FillingsUpdate:  mu: -0.101849773  nElectrons: 135.000000
	SubspaceRotationAdjust: set factor to 0.122
ElecMinimize: Iter:  21  F: -638.967677321441556  |grad|_K:  1.393e-06  alpha:  4.616e-01  linmin: -6.678e-07  t[s]:    103.86
	FillingsUpdate:  mu: -0.101726258  nElectrons: 135.000000
	SubspaceRotationAdjust: set factor to 0.142
ElecMinimize: Iter:  22  F: -638.967715647862519  |grad|_K:  1.268e-06  alpha:  4.614e-01  linmin: -2.309e-06  t[s]:    108.12
	FillingsUpdate:  mu: -0.099529092  nElectrons: 135.000000

Dumping 'X.fillings' ... done
Dumping 'X.wfns' ... done
Dumping 'X.force' ... done
Dumping 'X.eigenvals' ... done
	SubspaceRotationAdjust: set factor to 0.145
ElecMinimize: Iter:  23  F: -638.967748697459456  |grad|_K:  1.363e-06  alpha:  4.799e-01  linmin: -5.964e-06  t[s]:    112.87
	FillingsUpdate:  mu: -0.102968269  nElectrons: 135.000000
	SubspaceRotationAdjust: set factor to 0.119
ElecMinimize: Iter:  24  F: -638.967776818832363  |grad|_K:  1.331e-06  alpha:  3.534e-01  linmin: -1.633e-06  t[s]:    117.51
	FillingsUpdate:  mu: -0.100722219  nElectrons: 135.000000
	SubspaceRotationAdjust: set factor to 0.106
ElecMinimize: Iter:  25  F: -638.967804103057574  |grad|_K:  1.044e-06  alpha:  3.597e-01  linmin: -7.546e-06  t[s]:    121.95
	FillingsUpdate:  mu: -0.100843603  nElectrons: 135.000000
	SubspaceRotationAdjust: set factor to 0.112
ElecMinimize: Iter:  26  F: -638.967825451234717  |grad|_K:  9.456e-07  alpha:  4.571e-01  linmin: -2.750e-06  t[s]:    126.26
	FillingsUpdate:  mu: -0.102358940  nElectrons: 135.000000
	SubspaceRotationAdjust: set factor to 0.103
ElecMinimize: Iter:  27  F: -638.967841976906357  |grad|_K:  8.229e-07  alpha:  4.315e-01  linmin: -2.209e-06  t[s]:    130.60
	FillingsUpdate:  mu: -0.100893762  nElectrons: 135.000000
	SubspaceRotationAdjust: set factor to 0.0919
ElecMinimize: Iter:  28  F: -638.967853265483654  |grad|_K:  6.803e-07  alpha:  3.893e-01  linmin: -1.608e-06  t[s]:    134.98
	FillingsUpdate:  mu: -0.101372741  nElectrons: 135.000000
	SubspaceRotationAdjust: set factor to 0.0956
ElecMinimize: Iter:  29  F: -638.967861828720288  |grad|_K:  6.010e-07  alpha:  4.321e-01  linmin: -1.406e-06  t[s]:    139.31
	FillingsUpdate:  mu: -0.101791584  nElectrons: 135.000000
	SubspaceRotationAdjust: set factor to 0.101
ElecMinimize: Iter:  30  F: -638.967868846001465  |grad|_K:  5.300e-07  alpha:  4.538e-01  linmin:  5.731e-07  t[s]:    143.63
	FillingsUpdate:  mu: -0.101015408  nElectrons: 135.000000

Dumping 'X.fillings' ... done
Dumping 'X.wfns' ... done
Dumping 'X.force' ... done
Dumping 'X.eigenvals' ... done
	SubspaceRotationAdjust: set factor to 0.103
ElecMinimize: Iter:  31  F: -638.967873931350027  |grad|_K:  4.706e-07  alpha:  4.229e-01  linmin:  4.805e-07  t[s]:    148.54
	FillingsUpdate:  mu: -0.101562838  nElectrons: 135.000000
	SubspaceRotationAdjust: set factor to 0.112
ElecMinimize: Iter:  32  F: -638.967878486417817  |grad|_K:  4.585e-07  alpha:  4.805e-01  linmin: -3.904e-06  t[s]:    152.95
	FillingsUpdate:  mu: -0.101692498  nElectrons: 135.000000
	SubspaceRotationAdjust: set factor to 0.127
ElecMinimize: Iter:  33  F: -638.967882949643808  |grad|_K:  4.515e-07  alpha:  4.959e-01  linmin: -8.859e-07  t[s]:    157.26
	FillingsUpdate:  mu: -0.100938822  nElectrons: 135.000000
	SubspaceRotationAdjust: set factor to 0.131
ElecMinimize: Iter:  34  F: -638.967887200614314  |grad|_K:  4.812e-07  alpha:  4.870e-01  linmin: -3.046e-06  t[s]:    161.49
	FillingsUpdate:  mu: -0.101913450  nElectrons: 135.000000
	SubspaceRotationAdjust: set factor to 0.123
ElecMinimize: Iter:  35  F: -638.967891829161317  |grad|_K:  5.226e-07  alpha:  4.667e-01  linmin: -7.531e-06  t[s]:    165.72
	FillingsUpdate:  mu: -0.100962249  nElectrons: 135.000000
	SubspaceRotationAdjust: set factor to 0.117
ElecMinimize: Iter:  36  F: -638.967897427157254  |grad|_K:  5.325e-07  alpha:  4.783e-01  linmin: -1.462e-05  t[s]:    170.14
	FillingsUpdate:  mu: -0.101274898  nElectrons: 135.000000
	SubspaceRotationAdjust: set factor to 0.121
ElecMinimize: Iter:  37  F: -638.967904305404431  |grad|_K:  5.797e-07  alpha:  5.641e-01  linmin: -4.349e-05  t[s]:    174.53
	FillingsUpdate:  mu: -0.101704843  nElectrons: 135.000000
	SubspaceRotationAdjust: set factor to 0.123
ElecMinimize: Iter:  38  F: -638.967913304308354  |grad|_K:  6.720e-07  alpha:  6.233e-01  linmin:  1.371e-04  t[s]:    178.84
	FillingsUpdate:  mu: -0.101176262  nElectrons: 135.000000

Dumping 'X.fillings' ... done
Dumping 'X.wfns' ... done
Dumping 'X.force' ... done
Dumping 'X.eigenvals' ... done
	SubspaceRotationAdjust: set factor to 0.124
ElecMinimize: Iter:  39  F: -638.967918990208204  |grad|_K:  5.633e-07  alpha:  2.215e-01  linmin: -1.496e-03  t[s]:    183.66
	FillingsUpdate:  mu: -0.100916746  nElectrons: 135.000000
	SubspaceRotationAdjust: set factor to 0.132
ElecMinimize: Iter:  40  F: -638.967923420866327  |grad|_K:  5.156e-07  alpha:  2.543e-01  linmin:  7.055e-04  t[s]:    188.15
	FillingsUpdate:  mu: -0.101152778  nElectrons: 135.000000
	SubspaceRotationAdjust: set factor to 0.146
ElecMinimize: Iter:  41  F: -638.967924949037638  |grad|_K:  4.815e-07  alpha:  1.438e-01  linmin: -1.391e-04  t[s]:    192.38
	FillingsUpdate:  mu: -0.101428984  nElectrons: 135.000000
	SubspaceRotationAdjust: set factor to 0.166
ElecMinimize: Iter:  42  F: -638.967926265819301  |grad|_K:  4.296e-07  alpha:  1.297e-01  linmin:  1.995e-04  t[s]:    196.61
	FillingsUpdate:  mu: -0.101430674  nElectrons: 135.000000
	SubspaceRotationAdjust: set factor to 0.209
ElecMinimize: Iter:  43  F: -638.967927243924919  |grad|_K:  4.248e-07  alpha:  1.260e-01  linmin:  2.111e-04  t[s]:    200.95
	FillingsUpdate:  mu: -0.101215061  nElectrons: 135.000000
	SubspaceRotationAdjust: set factor to 0.269
ElecMinimize: Iter:  44  F: -638.967928173075848  |grad|_K:  4.487e-07  alpha:  1.218e-01  linmin:  1.780e-04  t[s]:    205.31
	FillingsUpdate:  mu: -0.101078208  nElectrons: 135.000000
	SubspaceRotationAdjust: set factor to 0.261
ElecMinimize: Iter:  45  F: -638.967929141917693  |grad|_K:  4.930e-07  alpha:  1.136e-01  linmin:  1.101e-04  t[s]:    209.68
	FillingsUpdate:  mu: -0.101275189  nElectrons: 135.000000
	SubspaceRotationAdjust: set factor to 0.253
ElecMinimize: Iter:  46  F: -638.967930117486844  |grad|_K:  4.867e-07  alpha:  9.437e-02  linmin:  4.311e-05  t[s]:    213.92
	FillingsUpdate:  mu: -0.101532682  nElectrons: 135.000000

Dumping 'X.fillings' ... done
Dumping 'X.wfns' ... done
Dumping 'X.force' ... done
Dumping 'X.eigenvals' ... done
	SubspaceRotationAdjust: set factor to 0.24
ElecMinimize: Iter:  47  F: -638.967931132566150  |grad|_K:  5.138e-07  alpha:  1.006e-01  linmin:  3.450e-05  t[s]:    218.67
	FillingsUpdate:  mu: -0.101479613  nElectrons: 135.000000
	SubspaceRotationAdjust: set factor to 0.247
ElecMinimize: Iter:  48  F: -638.967932265000627  |grad|_K:  5.180e-07  alpha:  1.008e-01  linmin:  2.417e-05  t[s]:    223.19
	FillingsUpdate:  mu: -0.101194219  nElectrons: 135.000000
	SubspaceRotationAdjust: set factor to 0.254
ElecMinimize: Iter:  49  F: -638.967933358827850  |grad|_K:  5.160e-07  alpha:  9.570e-02  linmin:  1.192e-05  t[s]:    227.57
	FillingsUpdate:  mu: -0.101069785  nElectrons: 135.000000
	SubspaceRotationAdjust: set factor to 0.256
ElecMinimize: Iter:  50  F: -638.967934466601037  |grad|_K:  5.234e-07  alpha:  9.742e-02  linmin: -1.765e-06  t[s]:    231.81
	FillingsUpdate:  mu: -0.101269006  nElectrons: 135.000000
	SubspaceRotationAdjust: set factor to 0.303
ElecMinimize: Iter:  51  F: -638.967935544593729  |grad|_K:  5.125e-07  alpha:  9.192e-02  linmin: -5.255e-06  t[s]:    236.11
	FillingsUpdate:  mu: -0.101486380  nElectrons: 135.000000
	SubspaceRotationAdjust: set factor to 0.338
ElecMinimize: Iter:  52  F: -638.967936618175827  |grad|_K:  5.365e-07  alpha:  9.526e-02  linmin: -1.823e-05  t[s]:    240.67
	FillingsUpdate:  mu: -0.101367406  nElectrons: 135.000000
	SubspaceRotationAdjust: set factor to 0.42
ElecMinimize: Iter:  53  F: -638.967937679185980  |grad|_K:  5.172e-07  alpha:  8.578e-02  linmin: -2.262e-05  t[s]:    245.17
	FillingsUpdate:  mu: -0.101110849  nElectrons: 135.000000
	SubspaceRotationAdjust: set factor to 0.5
ElecMinimize: Iter:  54  F: -638.967938630280401  |grad|_K:  5.287e-07  alpha:  8.256e-02  linmin: -2.772e-05  t[s]:    250.03
	FillingsUpdate:  mu: -0.101219037  nElectrons: 135.000000

Dumping 'X.fillings' ... done
Dumping 'X.wfns' ... done
Dumping 'X.force' ... done
Dumping 'X.eigenvals' ... done
	SubspaceRotationAdjust: set factor to 0.691
ElecMinimize: Iter:  55  F: -638.967939593166648  |grad|_K:  5.171e-07  alpha:  7.988e-02  linmin: -4.583e-05  t[s]:    254.75
	FillingsUpdate:  mu: -0.101536217  nElectrons: 135.000000
	SubspaceRotationAdjust: set factor to 0.838
ElecMinimize: Iter:  56  F: -638.967940476342392  |grad|_K:  5.394e-07  alpha:  7.621e-02  linmin: -5.655e-05  t[s]:    259.20
	FillingsUpdate:  mu: -0.101288301  nElectrons: 135.000000
	SubspaceRotationAdjust: set factor to 1.06
	SubspaceRotationAdjust: resetting CG because factor has changed by 9.1746
ElecMinimize: 	State modified externally: resetting search direction.
ElecMinimize: Iter:  57  F: -638.967941322495335  |grad|_K:  5.189e-07  alpha:  6.714e-02
ElecMinimize: 	Predicted alpha/alphaT>3.000000, increasing alphaT to 2.014281e-01.
	FillingsUpdate:  mu: -0.102766623  nElectrons: 135.000000
	SubspaceRotationAdjust: set factor to 0.555
ElecMinimize: Iter:  58  F: -638.967944792594380  |grad|_K:  1.632e-06  alpha:  2.998e-01  linmin: -1.397e-04  t[s]:    271.19
	FillingsUpdate:  mu: -0.100968451  nElectrons: 135.000000
	SubspaceRotationAdjust: set factor to 0.258
ElecMinimize: Iter:  59  F: -638.967949167791858  |grad|_K:  5.889e-07  alpha:  3.979e-02  linmin:  2.110e-04  t[s]:    275.40
ElecMinimize: 	Predicted alpha/alphaT>3.000000, increasing alphaT to 1.193722e-01.
	FillingsUpdate:  mu: -0.102107799  nElectrons: 135.000000
	SubspaceRotationAdjust: set factor to 0.166
ElecMinimize: Iter:  60  F: -638.967954059693852  |grad|_K:  4.843e-07  alpha:  3.384e-01  linmin: -2.998e-04  t[s]:    281.34
	FillingsUpdate:  mu: -0.100914195  nElectrons: 135.000000
	SubspaceRotationAdjust: set factor to 0.0928
	SubspaceRotationAdjust: resetting CG because factor has changed by 0.0874285
ElecMinimize: 	State modified externally: resetting search direction.
ElecMinimize: Iter:  61  F: -638.967955377214366  |grad|_K:  3.176e-07  alpha:  1.280e-01
	FillingsUpdate:  mu: -0.101671449  nElectrons: 135.000000
	SubspaceRotationAdjust: set factor to 0.2
ElecMinimize: Iter:  62  F: -638.967956639536055  |grad|_K:  2.464e-07  alpha:  2.914e-01  linmin: -2.607e-04  t[s]:    292.81
ElecMinimize: 	Predicted alpha/alphaT>3.000000, increasing alphaT to 8.740818e-01.
	FillingsUpdate:  mu: -0.101071683  nElectrons: 135.000000

Dumping 'X.fillings' ... done
Dumping 'X.wfns' ... done
Dumping 'X.force' ... done
Dumping 'X.eigenvals' ... done
	SubspaceRotationAdjust: set factor to 0.199
ElecMinimize: Iter:  63  F: -638.967959353654123  |grad|_K:  3.080e-07  alpha:  1.040e+00  linmin:  1.665e-05  t[s]:    298.89
	FillingsUpdate:  mu: -0.101330409  nElectrons: 135.000000
	SubspaceRotationAdjust: set factor to 0.203
ElecMinimize: Iter:  64  F: -638.967962915085650  |grad|_K:  3.246e-07  alpha:  8.768e-01  linmin:  1.115e-05  t[s]:    303.38
	FillingsUpdate:  mu: -0.101077029  nElectrons: 135.000000
	SubspaceRotationAdjust: set factor to 0.203
ElecMinimize: Iter:  65  F: -638.967964815278037  |grad|_K:  2.670e-07  alpha:  4.204e-01  linmin: -4.403e-05  t[s]:    307.65
	FillingsUpdate:  mu: -0.101865841  nElectrons: 135.000000
	SubspaceRotationAdjust: set factor to 0.147
ElecMinimize: Iter:  66  F: -638.967965635595306  |grad|_K:  2.973e-07  alpha:  2.681e-01  linmin: -3.564e-07  t[s]:    311.93
	FillingsUpdate:  mu: -0.101212430  nElectrons: 135.000000
	SubspaceRotationAdjust: set factor to 0.112
ElecMinimize: Iter:  67  F: -638.967966543705870  |grad|_K:  2.162e-07  alpha:  2.400e-01  linmin:  1.991e-05  t[s]:    316.28
	FillingsUpdate:  mu: -0.101146043  nElectrons: 135.000000
	SubspaceRotationAdjust: set factor to 0.123
ElecMinimize: Iter:  68  F: -638.967967690307887  |grad|_K:  2.493e-07  alpha:  5.771e-01  linmin:  1.710e-04  t[s]:    320.69
	FillingsUpdate:  mu: -0.101861999  nElectrons: 135.000000
	SubspaceRotationAdjust: set factor to 0.109
ElecMinimize: Iter:  69  F: -638.967969285202457  |grad|_K:  3.040e-07  alpha:  6.060e-01  linmin:  1.525e-04  t[s]:    325.08
	FillingsUpdate:  mu: -0.101099316  nElectrons: 135.000000
	SubspaceRotationAdjust: set factor to 0.0845
ElecMinimize: Iter:  70  F: -638.967970793414679  |grad|_K:  2.715e-07  alpha:  3.774e-01  linmin: -5.861e-05  t[s]:    329.46
	FillingsUpdate:  mu: -0.101326193  nElectrons: 135.000000

Dumping 'X.fillings' ... done
Dumping 'X.wfns' ... done
Dumping 'X.force' ... done
Dumping 'X.eigenvals' ... done
	SubspaceRotationAdjust: set factor to 0.102
ElecMinimize: Iter:  71  F: -638.967971873303213  |grad|_K:  1.823e-07  alpha:  3.400e-01  linmin:  1.146e-04  t[s]:    334.30
	FillingsUpdate:  mu: -0.101659876  nElectrons: 135.000000
	SubspaceRotationAdjust: set factor to 0.101
ElecMinimize: Iter:  72  F: -638.967972423977926  |grad|_K:  1.672e-07  alpha:  3.893e-01  linmin:  1.852e-05  t[s]:    339.27
	FillingsUpdate:  mu: -0.101254164  nElectrons: 135.000000
	SubspaceRotationAdjust: set factor to 0.101
ElecMinimize: Iter:  73  F: -638.967972943429913  |grad|_K:  1.635e-07  alpha:  4.341e-01  linmin:  2.820e-05  t[s]:    343.60
	FillingsUpdate:  mu: -0.101207796  nElectrons: 135.000000
	SubspaceRotationAdjust: set factor to 0.114
ElecMinimize: Iter:  74  F: -638.967973635215913  |grad|_K:  2.040e-07  alpha:  6.061e-01  linmin:  2.682e-05  t[s]:    347.95
	FillingsUpdate:  mu: -0.101497456  nElectrons: 135.000000
	SubspaceRotationAdjust: set factor to 0.12
ElecMinimize: Iter:  75  F: -638.967974496974875  |grad|_K:  2.177e-07  alpha:  4.839e-01  linmin: -5.701e-06  t[s]:    352.43
	FillingsUpdate:  mu: -0.100968331  nElectrons: 135.000000
	SubspaceRotationAdjust: set factor to 0.117
ElecMinimize: Iter:  76  F: -638.967975415176511  |grad|_K:  2.267e-07  alpha:  4.514e-01  linmin:  9.680e-05  t[s]:    356.76
	FillingsUpdate:  mu: -0.101201416  nElectrons: 135.000000
	SubspaceRotationAdjust: set factor to 0.145
ElecMinimize: Iter:  77  F: -638.967976218370268  |grad|_K:  1.923e-07  alpha:  3.637e-01  linmin:  1.261e-04  t[s]:    361.19
	FillingsUpdate:  mu: -0.101490394  nElectrons: 135.000000
	SubspaceRotationAdjust: set factor to 0.164
ElecMinimize: Iter:  78  F: -638.967976799376288  |grad|_K:  1.981e-07  alpha:  3.734e-01  linmin:  3.450e-04  t[s]:    365.65
	FillingsUpdate:  mu: -0.101229975  nElectrons: 135.000000

Dumping 'X.fillings' ... done
Dumping 'X.wfns' ... done
Dumping 'X.force' ... done
Dumping 'X.eigenvals' ... done
	SubspaceRotationAdjust: set factor to 0.18
ElecMinimize: Iter:  79  F: -638.967977182042773  |grad|_K:  1.739e-07  alpha:  2.278e-01  linmin: -8.076e-05  t[s]:    370.71
	FillingsUpdate:  mu: -0.101189604  nElectrons: 135.000000
	SubspaceRotationAdjust: set factor to 0.226
ElecMinimize: Iter:  80  F: -638.967977519874012  |grad|_K:  1.724e-07  alpha:  2.602e-01  linmin:  3.205e-04  t[s]:    375.16
	FillingsUpdate:  mu: -0.101444258  nElectrons: 135.000000
	SubspaceRotationAdjust: set factor to 0.249
ElecMinimize: Iter:  81  F: -638.967977746721544  |grad|_K:  1.712e-07  alpha:  1.817e-01  linmin:  8.859e-06  t[s]:    379.49
	FillingsUpdate:  mu: -0.101451125  nElectrons: 135.000000
	SubspaceRotationAdjust: set factor to 0.312
ElecMinimize: Iter:  82  F: -638.967977999649406  |grad|_K:  1.645e-07  alpha:  2.019e-01  linmin:  1.386e-04  t[s]:    384.02
	FillingsUpdate:  mu: -0.101248994  nElectrons: 135.000000
	SubspaceRotationAdjust: set factor to 0.28
ElecMinimize: Iter:  83  F: -638.967978174643804  |grad|_K:  1.751e-07  alpha:  1.527e-01  linmin:  2.213e-05  t[s]:    388.52
	FillingsUpdate:  mu: -0.101364457  nElectrons: 135.000000
	SubspaceRotationAdjust: set factor to 0.312
ElecMinimize: Iter:  84  F: -638.967978375570738  |grad|_K:  1.592e-07  alpha:  1.533e-01  linmin:  2.753e-05  t[s]:    392.85
	FillingsUpdate:  mu: -0.101478889  nElectrons: 135.000000
	SubspaceRotationAdjust: set factor to 0.268
ElecMinimize: Iter:  85  F: -638.967978583634704  |grad|_K:  1.784e-07  alpha:  1.915e-01  linmin: -1.059e-04  t[s]:    397.15
	FillingsUpdate:  mu: -0.101242645  nElectrons: 135.000000
	SubspaceRotationAdjust: set factor to 0.26
ElecMinimize: Iter:  86  F: -638.967978770467425  |grad|_K:  1.621e-07  alpha:  1.359e-01  linmin: -1.173e-05  t[s]:    401.50
	FillingsUpdate:  mu: -0.101242869  nElectrons: 135.000000

Dumping 'X.fillings' ... done
Dumping 'X.wfns' ... done
Dumping 'X.force' ... done
Dumping 'X.eigenvals' ... done
	SubspaceRotationAdjust: set factor to 0.278
ElecMinimize: Iter:  87  F: -638.967978993773613  |grad|_K:  1.586e-07  alpha:  1.960e-01  linmin: -2.041e-04  t[s]:    406.27
	FillingsUpdate:  mu: -0.101436998  nElectrons: 135.000000
	SubspaceRotationAdjust: set factor to 0.247
ElecMinimize: Iter:  88  F: -638.967979199506203  |grad|_K:  1.747e-07  alpha:  1.877e-01  linmin: -7.909e-05  t[s]:    410.73
	FillingsUpdate:  mu: -0.101255394  nElectrons: 135.000000
	SubspaceRotationAdjust: set factor to 0.3
ElecMinimize: Iter:  89  F: -638.967979406561426  |grad|_K:  1.471e-07  alpha:  1.577e-01  linmin: -4.860e-05  t[s]:    415.11
	FillingsUpdate:  mu: -0.101214615  nElectrons: 135.000000
	SubspaceRotationAdjust: set factor to 0.298
ElecMinimize: Iter:  90  F: -638.967979615555350  |grad|_K:  1.543e-07  alpha:  2.232e-01  linmin: -1.402e-04  t[s]:    419.51
	FillingsUpdate:  mu: -0.101482376  nElectrons: 135.000000
	SubspaceRotationAdjust: set factor to 0.288
ElecMinimize: Iter:  91  F: -638.967979776235666  |grad|_K:  1.600e-07  alpha:  1.568e-01  linmin: -1.482e-05  t[s]:    423.89
	FillingsUpdate:  mu: -0.101374957  nElectrons: 135.000000
	SubspaceRotationAdjust: set factor to 0.382
ElecMinimize: Iter:  92  F: -638.967979968957479  |grad|_K:  1.365e-07  alpha:  1.754e-01  linmin: -1.004e-04  t[s]:    428.21
	FillingsUpdate:  mu: -0.101327677  nElectrons: 135.000000
	SubspaceRotationAdjust: set factor to 0.391
ElecMinimize: Iter:  93  F: -638.967980177054073  |grad|_K:  1.530e-07  alpha:  2.545e-01  linmin: -2.231e-04  t[s]:    432.58
	FillingsUpdate:  mu: -0.101620061  nElectrons: 135.000000
	SubspaceRotationAdjust: set factor to 0.317
ElecMinimize: Iter:  94  F: -638.967980322517292  |grad|_K:  1.802e-07  alpha:  1.426e-01  linmin:  1.142e-05  t[s]:    437.01
	FillingsUpdate:  mu: -0.101395143  nElectrons: 135.000000

Dumping 'X.fillings' ... done
Dumping 'X.wfns' ... done
Dumping 'X.force' ... done
Dumping 'X.eigenvals' ... done
	SubspaceRotationAdjust: set factor to 0.36
ElecMinimize: Iter:  95  F: -638.967980524163863  |grad|_K:  1.400e-07  alpha:  1.451e-01  linmin: -3.727e-05  t[s]:    441.80
	FillingsUpdate:  mu: -0.101339095  nElectrons: 135.000000
	SubspaceRotationAdjust: set factor to 0.448
ElecMinimize: Iter:  96  F: -638.967980771842463  |grad|_K:  1.451e-07  alpha:  2.936e-01  linmin:  2.953e-06  t[s]:    446.39
	FillingsUpdate:  mu: -0.101586941  nElectrons: 135.000000
	SubspaceRotationAdjust: set factor to 0.363
ElecMinimize: Iter:  97  F: -638.967980931103966  |grad|_K:  1.911e-07  alpha:  1.763e-01  linmin: -1.152e-05  t[s]:    450.79
	FillingsUpdate:  mu: -0.101319491  nElectrons: 135.000000
	SubspaceRotationAdjust: set factor to 0.34
ElecMinimize: Iter:  98  F: -638.967981084006510  |grad|_K:  1.402e-07  alpha:  9.571e-02  linmin: -3.841e-05  t[s]:    454.97
	FillingsUpdate:  mu: -0.101279950  nElectrons: 135.000000
	SubspaceRotationAdjust: set factor to 0.449
ElecMinimize: Iter:  99  F: -638.967981287511407  |grad|_K:  1.453e-07  alpha:  2.389e-01  linmin:  6.288e-05  t[s]:    459.11
	FillingsUpdate:  mu: -0.101510613  nElectrons: 135.000000
	SubspaceRotationAdjust: set factor to 0.369
ElecMinimize: Iter: 100  F: -638.967981421530794  |grad|_K:  1.824e-07  alpha:  1.495e-01  linmin: -2.442e-05  t[s]:    463.31
	FillingsUpdate:  mu: -0.101294067  nElectrons: 135.000000
	SubspaceRotationAdjust: set factor to 0.424
ElecMinimize: Iter: 101  F: -638.967981591225680  |grad|_K:  1.534e-07  alpha:  1.182e-01  linmin:  1.139e-05  t[s]:    467.57
	FillingsUpdate:  mu: -0.101281110  nElectrons: 135.000000
	SubspaceRotationAdjust: set factor to 0.391
ElecMinimize: Iter: 102  F: -638.967981820515888  |grad|_K:  1.739e-07  alpha:  2.294e-01  linmin:  8.290e-05  t[s]:    471.69
	FillingsUpdate:  mu: -0.101543002  nElectrons: 135.000000

Dumping 'X.fillings' ... done
Dumping 'X.wfns' ... done
Dumping 'X.force' ... done
Dumping 'X.eigenvals' ... done
	SubspaceRotationAdjust: set factor to 0.29
ElecMinimize: Iter: 103  F: -638.967982019178180  |grad|_K:  2.152e-07  alpha:  1.553e-01  linmin: -8.411e-06  t[s]:    476.21
	FillingsUpdate:  mu: -0.101300056  nElectrons: 135.000000
	SubspaceRotationAdjust: set factor to 0.317
ElecMinimize: Iter: 104  F: -638.967982268562196  |grad|_K:  1.838e-07  alpha:  1.248e-01  linmin:  1.473e-05  t[s]:    480.50
	FillingsUpdate:  mu: -0.101209709  nElectrons: 135.000000
	SubspaceRotationAdjust: set factor to 0.286
ElecMinimize: Iter: 105  F: -638.967982593516922  |grad|_K:  2.177e-07  alpha:  2.312e-01  linmin:  2.063e-04  t[s]:    484.75
	FillingsUpdate:  mu: -0.101467508  nElectrons: 135.000000
	SubspaceRotationAdjust: set factor to 0.298
ElecMinimize: Iter: 106  F: -638.967982817069128  |grad|_K:  2.128e-07  alpha:  1.116e-01  linmin: -9.738e-05  t[s]:    488.89
	FillingsUpdate:  mu: -0.101492818  nElectrons: 135.000000
	SubspaceRotationAdjust: set factor to 0.29
ElecMinimize: Iter: 107  F: -638.967983135296663  |grad|_K:  2.321e-07  alpha:  1.645e-01  linmin:  2.512e-04  t[s]:    493.05
	FillingsUpdate:  mu: -0.101274742  nElectrons: 135.000000
	SubspaceRotationAdjust: set factor to 0.336
ElecMinimize: Iter: 108  F: -638.967983315005540  |grad|_K:  2.191e-07  alpha:  7.943e-02  linmin: -1.228e-04  t[s]:    497.35
	FillingsUpdate:  mu: -0.101106815  nElectrons: 135.000000
	SubspaceRotationAdjust: set factor to 0.278
ElecMinimize: Iter: 109  F: -638.967983532328958  |grad|_K:  2.552e-07  alpha:  1.039e-01  linmin:  1.839e-04  t[s]:    501.84
	FillingsUpdate:  mu: -0.101214169  nElectrons: 135.000000
	SubspaceRotationAdjust: set factor to 0.296
ElecMinimize: Iter: 110  F: -638.967983688354252  |grad|_K:  2.222e-07  alpha:  5.630e-02  linmin: -7.911e-05  t[s]:    506.21
	FillingsUpdate:  mu: -0.101399417  nElectrons: 135.000000

Dumping 'X.fillings' ... done
Dumping 'X.wfns' ... done
Dumping 'X.force' ... done
Dumping 'X.eigenvals' ... done
	SubspaceRotationAdjust: set factor to 0.295
ElecMinimize: Iter: 111  F: -638.967983827261719  |grad|_K:  2.320e-07  alpha:  6.456e-02  linmin:  4.857e-05  t[s]:    510.92
	FillingsUpdate:  mu: -0.101472687  nElectrons: 135.000000
	SubspaceRotationAdjust: set factor to 0.263
ElecMinimize: Iter: 112  F: -638.967983971742797  |grad|_K:  2.509e-07  alpha:  6.341e-02  linmin:  6.778e-05  t[s]:    515.48
	FillingsUpdate:  mu: -0.101377101  nElectrons: 135.000000
	SubspaceRotationAdjust: set factor to 0.28
ElecMinimize: Iter: 113  F: -638.967984099046134  |grad|_K:  2.305e-07  alpha:  4.728e-02  linmin:  1.458e-05  t[s]:    519.88
	FillingsUpdate:  mu: -0.101228556  nElectrons: 135.000000
	SubspaceRotationAdjust: set factor to 0.291
ElecMinimize: Iter: 114  F: -638.967984204570712  |grad|_K:  2.313e-07  alpha:  4.661e-02  linmin:  2.456e-05  t[s]:    524.15
	FillingsUpdate:  mu: -0.101125505  nElectrons: 135.000000
	SubspaceRotationAdjust: set factor to 0.256
ElecMinimize: Iter: 115  F: -638.967984310627230  |grad|_K:  2.483e-07  alpha:  4.660e-02  linmin:  4.697e-05  t[s]:    528.43
	FillingsUpdate:  mu: -0.101140346  nElectrons: 135.000000
	SubspaceRotationAdjust: set factor to 0.235
ElecMinimize: Iter: 116  F: -638.967984415678643  |grad|_K:  2.382e-07  alpha:  4.008e-02  linmin:  3.633e-05  t[s]:    532.80
	FillingsUpdate:  mu: -0.101244557  nElectrons: 135.000000
	SubspaceRotationAdjust: set factor to 0.243
ElecMinimize: Iter: 117  F: -638.967984506402445  |grad|_K:  2.224e-07  alpha:  3.774e-02  linmin:  3.890e-05  t[s]:    537.59
	FillingsUpdate:  mu: -0.101370359  nElectrons: 135.000000
	SubspaceRotationAdjust: set factor to 0.238
ElecMinimize: Iter: 118  F: -638.967984588756622  |grad|_K:  2.254e-07  alpha:  3.922e-02  linmin:  5.360e-05  t[s]:    542.17
ElecMinimize: Converged (|Delta F|<1.000000e-07 for 2 iters).
Setting wave functions to eigenvectors of Hamiltonian

# Ionic positions in lattice coordinates:
ion Na   0.000000000000000   0.000000000000000   0.224720000000000 1
ion Na   0.500000000000000   0.500000000000000   0.264050000000000 1
ion Na   0.000000000000000   0.000000000000000   0.303370000000000 1
ion Na   0.500000000000000   0.500000000000000   0.342700000000000 1
ion Na   0.000000000000000   0.000000000000000   0.382020000000000 1
ion Na   0.500000000000000   0.500000000000000   0.421350000000000 1
ion Na   0.000000000000000   0.000000000000000   0.460670000000000 1
ion Na   0.500000000000000   0.500000000000000   0.500000000000000 1
ion Na   0.000000000000000   0.000000000000000   0.539330000000000 1
ion Na   0.500000000000000   0.500000000000000   0.578650000000000 1
ion Na   0.000000000000000   0.000000000000000   0.617980000000000 1
ion Na   0.500000000000000   0.500000000000000   0.657300000000000 1
ion Na   0.000000000000000   0.000000000000000   0.696630000000000 1
ion Na   0.500000000000000   0.500000000000000   0.735950000000000 1
ion Na   0.000000000000000   0.000000000000000   0.775280000000000 1

# Forces in Lattice coordinates:
force Na  -0.000000000000000   0.000000000000000  -0.040778939656714 1
force Na   0.000000000000000  -0.000000000000000   0.024738377064592 1
force Na   0.000000000000000   0.000000000000000   0.002146833427398 1
force Na   0.000000000000000   0.000000000000000   0.000887264891375 1
force Na  -0.000000000000000   0.000000000000000  -0.006674002741072 1
force Na  -0.000000000000000   0.000000000000000  -0.017662704775334 1
force Na  -0.000000000000000  -0.000000000000000  -0.017040439539710 1
force Na   0.000000000000000   0.000000000000000   0.000000000000000 1
force Na   0.000000000000000  -0.000000000000000   0.017040439539710 1
force Na  -0.000000000000000   0.000000000000000   0.017662704775334 1
force Na  -0.000000000000000  -0.000000000000000   0.006674002740162 1
force Na  -0.000000000000000   0.000000000000000  -0.000887264890465 1
force Na  -0.000000000000000  -0.000000000000000  -0.002146833427398 1
force Na   0.000000000000000   0.000000000000000  -0.024738377064592 1
force Na  -0.000000000000000  -0.000000000000000   0.040778939656713 1

# Energy components:
   Eewald =   -18272.2511570676106203
       EH =   -17760.8378202539133781
     Eloc =    35356.7194240306416759
      Enl =     -193.9032898540193628
   Epulay =        0.0000147117892470
      Exc =      -93.9210350016236362
       KE =      325.2846910385520118
-------------------------------------
     Etot =     -638.9091723961839762
       TS =        0.0588121925726829
-------------------------------------
        F =     -638.9679845887566216

IonicMinimize: Iter:   0  F: -638.967984588756622  |grad|_K:  1.130e-04  t[s]:    542.84
IonicMinimize: None of the convergence criteria satisfied after 0 iterations.

#--- Lowdin population analysis ---
# oxidation-state Na +0.076 +0.051 +0.048 +0.056 +0.053 +0.053 +0.054 +0.054 +0.054 +0.053 +0.053 +0.056 +0.048 +0.051 +0.076


Dumping 'X.fillings' ... done
Dumping 'X.wfns' ... done
Dumping 'X.ionpos' ... done
Dumping 'X.lattice' ... done
Dumping 'X.n' ... done
Dumping 'X.eigenvals' ... done
Dumping 'X.eigStats' ... 
	eMin: -2.063267 at state 0 ( [ +0.000000 +0.000000 +0.000000 ] spin 0 )
	HOMO: -0.102074 at state 3 ( [ +0.000000 +0.272727 +0.000000 ] spin 0 )
	mu  : -0.101370
	LUMO: -0.100607 at state 9 ( [ +0.090909 +0.363636 +0.000000 ] spin 0 )
	eMax: +0.002641 at state 11 ( [ +0.181818 +0.181818 +0.000000 ] spin 0 )
	HOMO-LUMO gap: +0.001467
	Optical gap  : +0.002836 at state 17 ( [ +0.272727 +0.454545 +0.000000 ] spin 0 )
Dumping 'X.dos' ... done.
End date and time: Thu Nov  9 00:53:28 2023  (Duration: 0-0:09:03.46)
Done!

*************** JDFTx 1.7.0  ***************

Start date and time: Thu Nov  9 00:53:33 2023
Executable jdftx with command-line: -m -i X.in -o X.out
Running on hosts (process indices):  ac0710 (0-20)
Divided in process groups (process indices):  0 (0)  1 (1)  2 (2)  3 (3)  4 (4)  5 (5)  6 (6)  7 (7)  8 (8)  9 (9)  10 (10)  11 (11)  12 (12)  13 (13)  14 (14)  15 (15)  16 (16)  17 (17)  18 (18)  19 (19)  20 (20)
Resource initialization completed at t[s]:      0.00
Run totals: 21 processes, 21 threads, 0 GPUs


Input parsed successfully to the following command list (including defaults):

basis kpoint-dependent
cache-projectors no
coords-type Lattice
core-overlap-check vector
coulomb-interaction Slab 001
coulomb-truncation-embed 0 0 0.5
davidson-band-ratio 1.1
density-of-states Etol 1.000000e-06 Esigma 0.000000e+00 \
		Complete \
	Total \
		Occupied \
	Total
dump End State IonicPositions Lattice ElecDensity CoreDensity EigStats DOS
dump Electronic State Forces
dump Ionic State IonicPositions Forces Lattice DOS
dump-interval Electronic 8
dump-interval Ionic 4
dump-name X.$var
elec-cutoff 30
elec-eigen-algo Davidson
elec-ex-corr gga-PBE
elec-smearing Fermi 0.0095
electronic-minimize  \
	dirUpdateScheme      FletcherReeves \
	linminMethod         DirUpdateRecommended \
	nIterations          2000 \
	history              15 \
	knormThreshold       0 \
	energyDiffThreshold  1e-07 \
	nEnergyDiff          2 \
	alphaTstart          1 \
	alphaTmin            1e-10 \
	updateTestStepSize   yes \
	alphaTreduceFactor   0.1 \
	alphaTincreaseFactor 3 \
	nAlphaAdjustMax      3 \
	wolfeEnergy          0.0001 \
	wolfeGradient        0.9 \
	fdTest               no
exchange-regularization WignerSeitzTruncated
fluid None
fluid-ex-corr (null) lda-PZ
fluid-gummel-loop 10 1.000000e-05
fluid-minimize  \
	dirUpdateScheme      PolakRibiere \
	linminMethod         DirUpdateRecommended \
	nIterations          100 \
	history              15 \
	knormThreshold       0 \
	energyDiffThreshold  0 \
	nEnergyDiff          2 \
	alphaTstart          1 \
	alphaTmin            1e-10 \
	updateTestStepSize   yes \
	alphaTreduceFactor   0.1 \
	alphaTincreaseFactor 3 \
	nAlphaAdjustMax      3 \
	wolfeEnergy          0.0001 \
	wolfeGradient        0.9 \
	fdTest               no
fluid-solvent H2O 55.338 ScalarEOS \
	epsBulk 78.4 \
	pMol 0.92466 \
	epsInf 1.77 \
	Pvap 1.06736e-10 \
	sigmaBulk 4.62e-05 \
	Rvdw 2.61727 \
	Res 1.42 \
	tauNuc 343133 \
	poleEl 15 7 1
forces-output-coords Positions
ion Na   0.000000000000000   0.000000000000000   0.224720000000000 1
ion Na   0.500000000000000   0.500000000000000   0.264050000000000 1
ion Na   0.000000000000000   0.000000000000000   0.303370000000000 1
ion Na   0.500000000000000   0.500000000000000   0.342700000000000 1
ion Na   0.000000000000000   0.000000000000000   0.382020000000000 1
ion Na   0.500000000000000   0.500000000000000   0.421350000000000 1
ion Na   0.000000000000000   0.000000000000000   0.460670000000000 1
ion Na   0.500000000000000   0.500000000000000   0.500000000000000 1
ion Na   0.000000000000000   0.000000000000000   0.539330000000000 1
ion Na   0.500000000000000   0.500000000000000   0.578650000000000 1
ion Na   0.000000000000000   0.000000000000000   0.617980000000000 1
ion Na   0.500000000000000   0.500000000000000   0.657300000000000 1
ion Na   0.000000000000000   0.000000000000000   0.696630000000000 1
ion Na   0.500000000000000   0.500000000000000   0.735950000000000 1
ion Na   0.000000000000000   0.000000000000000   0.775280000000000 1
ion-species SG15/$ID_ONCV_PBE.upf
ion-width 0
ionic-minimize  \
	dirUpdateScheme      L-BFGS \
	linminMethod         DirUpdateRecommended \
	nIterations          0 \
	history              15 \
	knormThreshold       0.0001 \
	energyDiffThreshold  1e-06 \
	nEnergyDiff          2 \
	alphaTstart          1 \
	alphaTmin            1e-10 \
	updateTestStepSize   yes \
	alphaTreduceFactor   0.1 \
	alphaTincreaseFactor 3 \
	nAlphaAdjustMax      3 \
	wolfeEnergy          0.0001 \
	wolfeGradient        0.9 \
	fdTest               no
kpoint   0.000000000000   0.000000000000   0.000000000000  1.00000000000000
kpoint-folding 11 11 1 
latt-move-scale 1 1 1
latt-scale 1 1 1 
lattice  \
	   7.936714821600003   -0.000000000000000   -0.000000000000000  \
	   0.000000000000000    7.936714821600003   -0.000000000000000  \
	   0.000000000000000    0.000000000000000  100.910448161999994 
lattice-minimize  \
	dirUpdateScheme      L-BFGS \
	linminMethod         DirUpdateRecommended \
	nIterations          0 \
	history              15 \
	knormThreshold       0 \
	energyDiffThreshold  1e-06 \
	nEnergyDiff          2 \
	alphaTstart          1 \
	alphaTmin            1e-10 \
	updateTestStepSize   yes \
	alphaTreduceFactor   0.1 \
	alphaTincreaseFactor 3 \
	nAlphaAdjustMax      3 \
	wolfeEnergy          0.0001 \
	wolfeGradient        0.9 \
	fdTest               no
lcao-params -1 1e-06 0.0095
pcm-variant GLSSA13
spintype no-spin
subspace-rotation-factor 1 yes
symmetries automatic
symmetry-threshold 0.0001
wavefunction read X.wfns 75 20.000000



---------- Setting up symmetries ----------

Found 16 point-group symmetries of the bravais lattice
Found 16 space-group symmetries with basis
Applied RMS atom displacement 0 bohrs to make symmetries exact.

---------- Initializing the Grid ----------
R = 
[      7.93671            0            0  ]
[            0      7.93671            0  ]
[            0            0       100.91  ]
unit cell volume = 6356.49
G =
[   0.791661          0          0  ]
[         -0   0.791661          0  ]
[          0         -0   0.062265  ]
Minimum fftbox size, Smin = [  40  40  500  ]
Chosen fftbox size, S = [  40  40  500  ]

---------- Exchange Correlation functional ----------
Initalized PBE GGA exchange.
Initalized PBE GGA correlation.

---------- Setting up pseudopotentials ----------
Width of ionic core gaussian charges (only for fluid interactions / plotting) set to 0

Reading pseudopotential file '/net/software/testing/software/jdftx/1.7.0-foss-2021b-mkl/share/jdftx/pseudopotentials/SG15/Na_ONCV_PBE.upf':
  'Na' pseudopotential, 'PBE' functional
  Generated using ONCVPSP code by D. R. Hamann
  Author: Martin Schlipf and Francois Gygi  Date: 150915.
  9 valence electrons, 3 orbitals, 4 projectors, 1992 radial grid points, with lMax = 1
  Transforming local potential to a uniform radial grid of dG=0.02 with 1369 points.
[...]
	SubspaceRotationAdjust: set factor to 0.156
ElecMinimize: Iter:   3  F: -638.979660308472603  |grad|_K:  4.510e-09  alpha:  3.863e-01  linmin: -1.103e-03  t[s]:    828.75
	FillingsUpdate:  mu: -0.097367985  nElectrons: 135.000000
	SubspaceRotationAdjust: set factor to 0.121
ElecMinimize: Iter:   4  F: -638.979660309891528  |grad|_K:  3.320e-09  alpha:  3.129e-01  linmin: -3.581e-03  t[s]:    849.58
ElecMinimize: Converged (|Delta F|<1.000000e-08 for 2 iters).
Setting wave functions to eigenvectors of Hamiltonian
Converging empty states (this may take a while): |deigs|: 1.241e-09
IonicMinimize: 	Wolfe criterion not satisfied: alpha: 3  (E-E0)/|gdotd0|: -2.81635  gdotd/gdotd0: 0.914289 (taking cubic step)

-------- Electronic minimization -----------
	FillingsUpdate:  mu: -0.096799372  nElectrons: 135.000000
ElecMinimize: Iter:   0  F: -638.979660710320218  |grad|_K:  1.350e-07  alpha:  1.000e+00
	FillingsUpdate:  mu: -0.097490856  nElectrons: 135.000000
	SubspaceRotationAdjust: set factor to 0.0556
ElecMinimize: Iter:   1  F: -638.979661185135001  |grad|_K:  3.696e-08  alpha:  1.537e-01  linmin: -6.189e-05  t[s]:    905.44
	FillingsUpdate:  mu: -0.097391097  nElectrons: 135.000000
	SubspaceRotationAdjust: set factor to 0.0823
ElecMinimize: Iter:   2  F: -638.979661251303583  |grad|_K:  1.139e-08  alpha:  2.793e-01  linmin: -4.140e-03  t[s]:    925.81
	FillingsUpdate:  mu: -0.097369432  nElectrons: 135.000000
	SubspaceRotationAdjust: set factor to 0.0986
ElecMinimize: Iter:   3  F: -638.979661264085280  |grad|_K:  8.645e-09  alpha:  5.481e-01  linmin:  5.914e-04  t[s]:    946.36
	FillingsUpdate:  mu: -0.097373646  nElectrons: 135.000000
	SubspaceRotationAdjust: set factor to 0.113
ElecMinimize: Iter:   4  F: -638.979661270515521  |grad|_K:  5.506e-09  alpha:  5.130e-01  linmin: -4.088e-03  t[s]:    967.44
	FillingsUpdate:  mu: -0.097352198  nElectrons: 135.000000
	SubspaceRotationAdjust: set factor to 0.11
ElecMinimize: Iter:   5  F: -638.979661273413058  |grad|_K:  3.621e-09  alpha:  5.142e-01  linmin:  1.352e-03  t[s]:    988.52
ElecMinimize: Converged (|Delta F|<1.000000e-08 for 2 iters).
Setting wave functions to eigenvectors of Hamiltonian
Converging empty states (this may take a while): |deigs|: 1.235e-09

# Ionic positions in lattice coordinates:
ion Na   0.000000000000000  -0.000000000000000   0.224719994387935 1
ion Na   0.500000000000000   0.500000000000000   0.264066041832101 1
ion Na  -0.000000000000000   0.000000000000000   0.303365884355826 1
ion Na   0.500000000000000   0.500000000000000   0.342695318996950 1
ion Na  -0.000000000000000   0.000000000000000   0.382012170717420 1
ion Na   0.500000000000000   0.500000000000000   0.421366973736384 1
ion Na   0.000000000000000   0.000000000000000   0.460672055790459 1
ion Na   0.500000000000000   0.500000000000000   0.500000000000000 1
ion Na   0.000000000000000   0.000000000000000   0.539327944209541 1
ion Na   0.500000000000000   0.500000000000000   0.578633026263616 1
ion Na  -0.000000000000000   0.000000000000000   0.617987829282580 1
ion Na   0.500000000000000   0.500000000000000   0.657304681003050 1
ion Na  -0.000000000000000   0.000000000000000   0.696634115644174 1
ion Na   0.500000000000000   0.500000000000000   0.735933958167899 1
ion Na   0.000000000000000  -0.000000000000000   0.775280005612065 1

# Forces in Lattice coordinates:
force Na   0.000000000000000   0.000000000000000  -0.000778279762384 1
force Na   0.000000000000000   0.000000000000000   0.019471403948301 1
force Na  -0.000000000000000  -0.000000000000000  -0.007795929597298 1
force Na   0.000000000000000  -0.000000000000000  -0.008517821670594 1
force Na   0.000000000000000   0.000000000000000  -0.011908835572112 1
force Na   0.000000000000000   0.000000000000000   0.020727431131074 1
force Na   0.000000000000000   0.000000000000000   0.001293183195207 1
force Na  -0.000000000000000  -0.000000000000000   0.000000000000000 1
force Na   0.000000000000000   0.000000000000000  -0.001293183195207 1
force Na   0.000000000000000  -0.000000000000000  -0.020727431131074 1
force Na   0.000000000000000   0.000000000000000   0.011908835572112 1
force Na  -0.000000000000000   0.000000000000000   0.008517821670594 1
force Na  -0.000000000000000   0.000000000000000   0.007795929596389 1
force Na   0.000000000000000  -0.000000000000000  -0.019471403944663 1
force Na   0.000000000000000  -0.000000000000000   0.000778279762384 1

# Energy components:
   Eewald =   -18272.0245571020241186
       EH =   -17760.0217346221033949
     Eloc =    35355.5976805306854658
      Enl =     -193.9732107890104373
   Epulay =       -0.0000000277578309
      Exc =      -93.9405401669142179
       KE =      325.3832945798720857
-------------------------------------
     Etot =     -638.9790675972486724
       TS =        0.0005936761643563
-------------------------------------
        F =     -638.9796612734130576

IonicMinimize: Iter:   1  F: -638.979661273413058  |grad|_K:  6.885e-05  alpha:  7.000e+00  linmin: -9.904e-01  t[s]:   1008.65

#--- Lowdin population analysis ---
# oxidation-state Na +0.054 +0.047 +0.036 +0.045 +0.040 +0.042 +0.041 +0.044 +0.041 +0.042 +0.040 +0.045 +0.036 +0.047 +0.054


-------- Electronic minimization -----------
	FillingsUpdate:  mu: -0.098016992  nElectrons: 135.000000
ElecMinimize: Iter:   0  F: -638.979572588006590  |grad|_K:  1.356e-06  alpha:  1.000e+00
	FillingsUpdate:  mu: -0.097421981  nElectrons: 135.000000
	SubspaceRotationAdjust: set factor to 0.121
ElecMinimize: Iter:   1  F: -638.979662511588458  |grad|_K:  2.998e-07  alpha:  2.892e-01  linmin:  4.402e-05  t[s]:   1046.61
	FillingsUpdate:  mu: -0.097857655  nElectrons: 135.000000
	SubspaceRotationAdjust: set factor to 0.133
ElecMinimize: Iter:   2  F: -638.979668812058776  |grad|_K:  1.723e-07  alpha:  4.145e-01  linmin: -3.050e-05  t[s]:   1068.02
	FillingsUpdate:  mu: -0.096786405  nElectrons: 135.000000
	SubspaceRotationAdjust: set factor to 0.105
ElecMinimize: Iter:   3  F: -638.979670847244506  |grad|_K:  1.486e-07  alpha:  4.050e-01  linmin: -1.998e-05  t[s]:   1089.39
	FillingsUpdate:  mu: -0.097472072  nElectrons: 135.000000
	SubspaceRotationAdjust: set factor to 0.0678
ElecMinimize: Iter:   4  F: -638.979671844829682  |grad|_K:  8.934e-08  alpha:  2.671e-01  linmin:  8.722e-06  t[s]:   1110.44
	FillingsUpdate:  mu: -0.097240658  nElectrons: 135.000000
	SubspaceRotationAdjust: set factor to 0.0799
ElecMinimize: Iter:   5  F: -638.979672527424100  |grad|_K:  5.733e-08  alpha:  5.045e-01  linmin: -2.160e-04  t[s]:   1131.44
	FillingsUpdate:  mu: -0.097063536  nElectrons: 135.000000
	SubspaceRotationAdjust: set factor to 0.0825
ElecMinimize: Iter:   6  F: -638.979672827915692  |grad|_K:  4.777e-08  alpha:  5.386e-01  linmin: -2.201e-04  t[s]:   1152.79
	FillingsUpdate:  mu: -0.097328815  nElectrons: 135.000000

Dumping 'X.fillings' ... done
Dumping 'X.wfns' ... done
Dumping 'X.ionpos' ... done
Dumping 'X.force' ... done
Dumping 'X.eigenvals' ... done
	SubspaceRotationAdjust: set factor to 0.0774
ElecMinimize: Iter:   7  F: -638.979673035520022  |grad|_K:  4.278e-08  alpha:  5.370e-01  linmin:  2.719e-05  t[s]:   1176.09
	FillingsUpdate:  mu: -0.097254407  nElectrons: 135.000000
	SubspaceRotationAdjust: set factor to 0.0806
ElecMinimize: Iter:   8  F: -638.979673218714197  |grad|_K:  3.706e-08  alpha:  5.934e-01  linmin:  9.158e-06  t[s]:   1197.59
	FillingsUpdate:  mu: -0.097313381  nElectrons: 135.000000
	SubspaceRotationAdjust: set factor to 0.0877
ElecMinimize: Iter:   9  F: -638.979673349849463  |grad|_K:  2.991e-08  alpha:  5.622e-01  linmin:  5.670e-06  t[s]:   1218.92
	FillingsUpdate:  mu: -0.097417614  nElectrons: 135.000000
	SubspaceRotationAdjust: set factor to 0.0883
ElecMinimize: Iter:  10  F: -638.979673422703627  |grad|_K:  2.296e-08  alpha:  4.823e-01  linmin: -7.126e-05  t[s]:   1240.25
	FillingsUpdate:  mu: -0.097375051  nElectrons: 135.000000
	SubspaceRotationAdjust: set factor to 0.0888
ElecMinimize: Iter:  11  F: -638.979673464893722  |grad|_K:  1.923e-08  alpha:  4.750e-01  linmin:  1.407e-04  t[s]:   1261.15
	FillingsUpdate:  mu: -0.097413217  nElectrons: 135.000000
	SubspaceRotationAdjust: set factor to 0.0938
ElecMinimize: Iter:  12  F: -638.979673497375188  |grad|_K:  1.709e-08  alpha:  5.281e-01  linmin:  8.824e-05  t[s]:   1282.47
	FillingsUpdate:  mu: -0.097407424  nElectrons: 135.000000
	SubspaceRotationAdjust: set factor to 0.101
ElecMinimize: Iter:  13  F: -638.979673524914574  |grad|_K:  1.470e-08  alpha:  5.653e-01  linmin:  4.922e-05  t[s]:   1303.46
	FillingsUpdate:  mu: -0.097375410  nElectrons: 135.000000
	SubspaceRotationAdjust: set factor to 0.104
ElecMinimize: Iter:  14  F: -638.979673543798413  |grad|_K:  1.191e-08  alpha:  5.088e-01  linmin:  3.833e-04  t[s]:   1323.84
	FillingsUpdate:  mu: -0.097397499  nElectrons: 135.000000

Dumping 'X.fillings' ... done
Dumping 'X.wfns' ... done
Dumping 'X.ionpos' ... done
Dumping 'X.force' ... done
Dumping 'X.eigenvals' ... done
	SubspaceRotationAdjust: set factor to 0.099
ElecMinimize: Iter:  15  F: -638.979673553314342  |grad|_K:  8.781e-09  alpha:  4.161e-01  linmin: -1.740e-04  t[s]:   1345.95
	FillingsUpdate:  mu: -0.097361572  nElectrons: 135.000000
	SubspaceRotationAdjust: set factor to 0.0907
ElecMinimize: Iter:  16  F: -638.979673559287107  |grad|_K:  6.944e-09  alpha:  4.460e-01  linmin: -3.111e-04  t[s]:   1366.48
ElecMinimize: Converged (|Delta F|<1.000000e-08 for 2 iters).
Setting wave functions to eigenvectors of Hamiltonian
Converging empty states (this may take a while): |deigs|: 2.782e-08

# Ionic positions in lattice coordinates:
ion Na   0.000000000000000  -0.000000000000000   0.224701969481993 1
ion Na   0.500000000000000   0.500000000000000   0.264227762034875 1
ion Na  -0.000000000000000   0.000000000000000   0.303259169421429 1
ion Na   0.500000000000000   0.500000000000000   0.342582073902783 1
ion Na   0.000000000000000   0.000000000000000   0.381877210278276 1
ion Na   0.500000000000000   0.500000000000000   0.421540997476316 1
ion Na   0.000000000000000  -0.000000000000000   0.460664782003458 1
ion Na   0.500000000000000   0.500000000000000   0.500000000000000 1
ion Na   0.000000000000000  -0.000000000000000   0.539335217996541 1
ion Na   0.500000000000000   0.500000000000000   0.578459002523684 1
ion Na   0.000000000000000   0.000000000000000   0.618122789721724 1
ion Na   0.500000000000000   0.500000000000000   0.657417926097217 1
ion Na  -0.000000000000000   0.000000000000000   0.696740830578571 1
ion Na   0.500000000000000   0.500000000000000   0.735772237965125 1
ion Na   0.000000000000000  -0.000000000000000   0.775298030518007 1

# Forces in Lattice coordinates:
force Na  -0.000000000000000  -0.000000000000000   0.004603839589322 1
force Na  -0.000000000000000   0.000000000000000   0.002800738975371 1
force Na  -0.000000000000000  -0.000000000000000   0.001032876357650 1
force Na   0.000000000000000  -0.000000000000000  -0.007432391802837 1
force Na  -0.000000000000000  -0.000000000000000  -0.001301601824889 1
force Na  -0.000000000000000   0.000000000000000   0.002848855480295 1
force Na   0.000000000000000   0.000000000000000   0.007158393107411 1
force Na  -0.000000000000000   0.000000000000000   0.000000000000000 1
force Na   0.000000000000000  -0.000000000000000  -0.007158393107639 1
force Na  -0.000000000000000  -0.000000000000000  -0.002848855480295 1
force Na   0.000000000000000   0.000000000000000   0.001301601824889 1
force Na   0.000000000000000  -0.000000000000000   0.007432391802837 1
force Na  -0.000000000000000  -0.000000000000000  -0.001032876356740 1
force Na   0.000000000000000   0.000000000000000  -0.002800738973552 1
force Na   0.000000000000000   0.000000000000000  -0.004603839589322 1

# Energy components:
   Eewald =   -18272.6943152668209223
       EH =   -17760.6922972639622458
     Eloc =    35356.9380343951488612
      Enl =     -193.9732336323770312
   Epulay =       -0.0000000277578309
      Exc =      -93.9405172052712487
       KE =      325.3832461149622759
-------------------------------------
     Etot =     -638.9790828860781176
       TS =        0.0005906732089798
-------------------------------------
        F =     -638.9796735592871073

IonicMinimize: Iter:   2  F: -638.979673559287107  |grad|_K:  2.528e-05  alpha:  1.000e+00  linmin: -4.514e-01  t[s]:   1392.53

#--- Lowdin population analysis ---
# oxidation-state Na +0.053 +0.047 +0.036 +0.045 +0.040 +0.042 +0.041 +0.044 +0.041 +0.042 +0.040 +0.045 +0.036 +0.047 +0.053


-------- Electronic minimization -----------
	FillingsUpdate:  mu: -0.098081861  nElectrons: 135.000000
ElecMinimize: Iter:   0  F: -638.979647193057076  |grad|_K:  7.208e-07  alpha:  1.000e+00
	FillingsUpdate:  mu: -0.097385133  nElectrons: 135.000000
	SubspaceRotationAdjust: set factor to 0.0981
ElecMinimize: Iter:   1  F: -638.979672614956939  |grad|_K:  1.691e-07  alpha:  2.893e-01  linmin: -5.529e-05  t[s]:   1429.15
	FillingsUpdate:  mu: -0.097844191  nElectrons: 135.000000
	SubspaceRotationAdjust: set factor to 0.105
ElecMinimize: Iter:   2  F: -638.979674637218864  |grad|_K:  1.053e-07  alpha:  4.177e-01  linmin: -1.210e-04  t[s]:   1449.95
	FillingsUpdate:  mu: -0.097185202  nElectrons: 135.000000
	SubspaceRotationAdjust: set factor to 0.0858
ElecMinimize: Iter:   3  F: -638.979675446550800  |grad|_K:  7.994e-08  alpha:  4.311e-01  linmin:  9.285e-06  t[s]:   1470.58
	FillingsUpdate:  mu: -0.097508255  nElectrons: 135.000000
	SubspaceRotationAdjust: set factor to 0.0619
ElecMinimize: Iter:   4  F: -638.979675846764167  |grad|_K:  4.821e-08  alpha:  3.704e-01  linmin: -1.486e-06  t[s]:   1491.35
	FillingsUpdate:  mu: -0.097331555  nElectrons: 135.000000
	SubspaceRotationAdjust: set factor to 0.0648
ElecMinimize: Iter:   5  F: -638.979676028735526  |grad|_K:  2.676e-08  alpha:  4.624e-01  linmin:  7.697e-05  t[s]:   1511.68
	FillingsUpdate:  mu: -0.097276025  nElectrons: 135.000000
	SubspaceRotationAdjust: set factor to 0.069
ElecMinimize: Iter:   6  F: -638.979676099441804  |grad|_K:  2.166e-08  alpha:  5.789e-01  linmin: -1.226e-03  t[s]:   1531.94
	FillingsUpdate:  mu: -0.097353402  nElectrons: 135.000000

Dumping 'X.fillings' ... done
Dumping 'X.wfns' ... done
Dumping 'X.ionpos' ... done
Dumping 'X.force' ... done
Dumping 'X.eigenvals' ... done
	SubspaceRotationAdjust: set factor to 0.0688
ElecMinimize: Iter:   7  F: -638.979676151536751  |grad|_K:  2.071e-08  alpha:  6.449e-01  linmin: -4.657e-04  t[s]:   1554.09
	FillingsUpdate:  mu: -0.097313983  nElectrons: 135.000000
	SubspaceRotationAdjust: set factor to 0.0714
ElecMinimize: Iter:   8  F: -638.979676202950600  |grad|_K:  2.052e-08  alpha:  7.052e-01  linmin:  2.454e-04  t[s]:   1574.88
	FillingsUpdate:  mu: -0.097337897  nElectrons: 135.000000
	SubspaceRotationAdjust: set factor to 0.0765
ElecMinimize: Iter:   9  F: -638.979676244210850  |grad|_K:  1.609e-08  alpha:  5.802e-01  linmin:  3.880e-05  t[s]:   1595.55
	FillingsUpdate:  mu: -0.097372757  nElectrons: 135.000000
	SubspaceRotationAdjust: set factor to 0.0808
ElecMinimize: Iter:  10  F: -638.979676264750083  |grad|_K:  1.128e-08  alpha:  4.739e-01  linmin: -4.641e-04  t[s]:   1616.78
	FillingsUpdate:  mu: -0.097370299  nElectrons: 135.000000
	SubspaceRotationAdjust: set factor to 0.087
ElecMinimize: Iter:  11  F: -638.979676275362749  |grad|_K:  9.264e-09  alpha:  4.844e-01  linmin:  1.581e-04  t[s]:   1637.58
	FillingsUpdate:  mu: -0.097377073  nElectrons: 135.000000
	SubspaceRotationAdjust: set factor to 0.0944
ElecMinimize: Iter:  12  F: -638.979676283342428  |grad|_K:  8.452e-09  alpha:  5.252e-01  linmin: -3.594e-04  t[s]:   1658.22
	FillingsUpdate:  mu: -0.097375642  nElectrons: 135.000000
	SubspaceRotationAdjust: set factor to 0.101
ElecMinimize: Iter:  13  F: -638.979676290480370  |grad|_K:  8.387e-09  alpha:  5.958e-01  linmin:  5.476e-04  t[s]:   1678.86
ElecMinimize: Converged (|Delta F|<1.000000e-08 for 2 iters).
Setting wave functions to eigenvectors of Hamiltonian
Converging empty states (this may take a while): |deigs|: 1.659e-08

# Ionic positions in lattice coordinates:
ion Na  -0.000000000000000  -0.000000000000000   0.224750937329619 1
ion Na   0.500000000000000   0.500000000000000   0.264277328589580 1
ion Na  -0.000000000000000  -0.000000000000000   0.303245865279418 1
ion Na   0.500000000000000   0.500000000000000   0.342467002049928 1
ion Na   0.000000000000000  -0.000000000000000   0.381835355078050 1
ion Na   0.500000000000000   0.500000000000000   0.421593034801300 1
ion Na   0.000000000000000  -0.000000000000000   0.460742982852745 1
ion Na   0.500000000000000   0.500000000000000   0.500000000000000 1
ion Na   0.000000000000000  -0.000000000000000   0.539257017147255 1
ion Na   0.500000000000000   0.500000000000000   0.578406965198700 1
ion Na   0.000000000000000  -0.000000000000000   0.618164644921950 1
ion Na   0.500000000000000   0.500000000000000   0.657532997950071 1
ion Na  -0.000000000000000  -0.000000000000000   0.696754134720582 1
ion Na   0.500000000000000   0.500000000000000   0.735722671410420 1
ion Na  -0.000000000000000  -0.000000000000000   0.775249062670381 1

# Forces in Lattice coordinates:
force Na  -0.000000000000000  -0.000000000000000   0.003409955182827 1
force Na  -0.000000000000000  -0.000000000000000  -0.001038029646172 1
force Na  -0.000000000000000   0.000000000000000  -0.000879050236239 1
force Na   0.000000000000000  -0.000000000000000  -0.000281424121488 1
force Na  -0.000000000000000  -0.000000000000000  -0.000523433080367 1
force Na  -0.000000000000000   0.000000000000000  -0.001605826296235 1
force Na   0.000000000000000   0.000000000000000   0.000597707058012 1
force Na   0.000000000000000   0.000000000000000   0.000000000000000 1
force Na   0.000000000000000   0.000000000000000  -0.000597707058012 1
force Na  -0.000000000000000  -0.000000000000000   0.001605826296235 1
force Na  -0.000000000000000  -0.000000000000000   0.000523433081277 1
force Na   0.000000000000000  -0.000000000000000   0.000281424120578 1
force Na   0.000000000000000   0.000000000000000   0.000879050235330 1
force Na  -0.000000000000000  -0.000000000000000   0.001038029642534 1
force Na  -0.000000000000000  -0.000000000000000  -0.003409955184646 1

# Energy components:
   Eewald =   -18272.1490277496886847
       EH =   -17760.1498884781030938
     Eloc =    35355.8501787577697542
      Enl =     -193.9732863816662984
   Epulay =       -0.0000000277578309
      Exc =      -93.9406898770380110
       KE =      325.3836269804423864
-------------------------------------
     Etot =     -638.9790867760453921
       TS =        0.0005895144349316
-------------------------------------
        F =     -638.9796762904803700


Dumping 'X.fillings' ... done
Dumping 'X.wfns' ... done
Dumping 'X.ionpos' ... done
Dumping 'X.force' ... done
Dumping 'X.lattice' ... done
Dumping 'X.eigenvals' ... done
Dumping 'X.dos' ... done.
IonicMinimize: Iter:   3  F: -638.979676290480370  |grad|_K:  8.555e-06  alpha:  1.000e+00  linmin: -2.080e-01  t[s]:   1706.24
IonicMinimize: Converged (|grad|_K<1.000000e-05).

#--- Lowdin population analysis ---
# oxidation-state Na +0.054 +0.047 +0.036 +0.045 +0.040 +0.042 +0.041 +0.044 +0.041 +0.042 +0.040 +0.045 +0.036 +0.047 +0.054


Dumping 'X.fillings' ... done
Dumping 'X.wfns' ... done
Dumping 'X.ionpos' ... done
Dumping 'X.lattice' ... done
Dumping 'X.n' ... done
Dumping 'X.eigenvals' ... done
Dumping 'X.eigStats' ... 
	eMin: -2.059657 at state 0 ( [ +0.000000 +0.000000 +0.000000 ] spin 0 )
	HOMO: -0.097619 at state 9 ( [ +0.090909 +0.363636 +0.000000 ] spin 0 )
	mu  : -0.097376
	LUMO: -0.096898 at state 6 ( [ +0.090909 +0.090909 +0.000000 ] spin 0 )
	eMax: -0.001998 at state 6 ( [ +0.090909 +0.090909 +0.000000 ] spin 0 )
	HOMO-LUMO gap: +0.000721
	Optical gap  : +0.002781 at state 17 ( [ +0.272727 +0.454545 +0.000000 ] spin 0 )
Dumping 'X.dos' ... done.
End date and time: Thu Nov  9 02:06:22 2023  (Duration: 0-0:28:28.51)
Done!
