
*************** JDFTx 1.7.0  ***************

Start date and time: Wed Nov  8 23:16:54 2023
Executable jdftx with command-line: -m -i X.in -o X.out
Running on hosts (process indices):  ac0015 (0-20)
Divided in process groups (process indices):  0 (0)  1 (1)  2 (2)  3 (3)  4 (4)  5 (5)  6 (6)  7 (7)  8 (8)  9 (9)  10 (10)  11 (11)  12 (12)  13 (13)  14 (14)  15 (15)  16 (16)  17 (17)  18 (18)  19 (19)  20 (20)
Resource initialization completed at t[s]:      0.01
Run totals: 21 processes, 21 threads, 0 GPUs


Input parsed successfully to the following command list (including defaults):

basis kpoint-dependent
cache-projectors no
coords-type Lattice
core-overlap-check vector
coulomb-interaction Slab 001
coulomb-truncation-embed 0 0 0.5
davidson-band-ratio 1.1
density-of-states Etol 1.000000e-06 Esigma 0.000000e+00 \
		Complete \
	Total \
		Occupied \
	Total
dump End State IonicPositions Lattice ElecDensity CoreDensity EigStats DOS
dump Electronic State Forces
dump Ionic State IonicPositions Forces Lattice DOS
dump-interval Electronic 8
dump-interval Ionic 4
dump-name X.$var
elec-cutoff 10
elec-eigen-algo Davidson
elec-ex-corr gga-PBE
elec-smearing Fermi 0.0095
electronic-minimize  \
	dirUpdateScheme      FletcherReeves \
	linminMethod         DirUpdateRecommended \
	nIterations          2000 \
	history              15 \
	knormThreshold       0 \
	energyDiffThreshold  1e-06 \
	nEnergyDiff          2 \
	alphaTstart          1 \
	alphaTmin            1e-10 \
	updateTestStepSize   yes \
	alphaTreduceFactor   0.1 \
	alphaTincreaseFactor 3 \
	nAlphaAdjustMax      3 \
	wolfeEnergy          0.0001 \
	wolfeGradient        0.9 \
	fdTest               no
exchange-regularization WignerSeitzTruncated
fluid None
fluid-ex-corr (null) lda-PZ
fluid-gummel-loop 10 1.000000e-05
fluid-minimize  \
	dirUpdateScheme      PolakRibiere \
	linminMethod         DirUpdateRecommended \
	nIterations          100 \
	history              15 \
	knormThreshold       0 \
	energyDiffThreshold  0 \
	nEnergyDiff          2 \
	alphaTstart          1 \
	alphaTmin            1e-10 \
	updateTestStepSize   yes \
	alphaTreduceFactor   0.1 \
	alphaTincreaseFactor 3 \
	nAlphaAdjustMax      3 \
	wolfeEnergy          0.0001 \
	wolfeGradient        0.9 \
	fdTest               no
fluid-solvent H2O 55.338 ScalarEOS \
	epsBulk 78.4 \
	pMol 0.92466 \
	epsInf 1.77 \
	Pvap 1.06736e-10 \
	sigmaBulk 4.62e-05 \
	Rvdw 2.61727 \
	Res 1.42 \
	tauNuc 343133 \
	poleEl 15 7 1
forces-output-coords Positions
initial-state X.$var
ion Na   0.000000000000000   0.000000000000000   0.347830000000000 1
ion Na   0.500000000000000   0.500000000000000   0.408700000000000 1
ion Na   0.000000000000000   0.000000000000000   0.469570000000000 1
ion Na   0.500000000000000   0.500000000000000   0.530430000000000 1
ion Na   0.000000000000000   0.000000000000000   0.591300000000000 1
ion Na   0.500000000000000   0.500000000000000   0.652170000000000 1
ion-species SG15/$ID_ONCV_PBE.upf
ion-width 0
ionic-minimize  \
	dirUpdateScheme      L-BFGS \
	linminMethod         DirUpdateRecommended \
	nIterations          0 \
	history              15 \
	knormThreshold       0.0001 \
	energyDiffThreshold  1e-06 \
	nEnergyDiff          2 \
	alphaTstart          1 \
	alphaTmin            1e-10 \
	updateTestStepSize   yes \
	alphaTreduceFactor   0.1 \
	alphaTincreaseFactor 3 \
	nAlphaAdjustMax      3 \
	wolfeEnergy          0.0001 \
	wolfeGradient        0.9 \
	fdTest               no
kpoint   0.000000000000   0.000000000000   0.000000000000  1.00000000000000
kpoint-folding 11 11 1 
latt-move-scale 1 1 1
latt-scale 1.88973 1.88973 1.88973 
lattice  \
	   4.199920000000001   -0.000000000000000   -0.000000000000000  \
	   0.000000000000000    4.199920000000001   -0.000000000000000  \
	   0.000000000000000    0.000000000000000   34.499799999999993 
lattice-minimize  \
	dirUpdateScheme      L-BFGS \
	linminMethod         DirUpdateRecommended \
	nIterations          0 \
	history              15 \
	knormThreshold       0 \
	energyDiffThreshold  1e-06 \
	nEnergyDiff          2 \
	alphaTstart          1 \
	alphaTmin            1e-10 \
	updateTestStepSize   yes \
	alphaTreduceFactor   0.1 \
	alphaTincreaseFactor 3 \
	nAlphaAdjustMax      3 \
	wolfeEnergy          0.0001 \
	wolfeGradient        0.9 \
	fdTest               no
lcao-params -1 1e-06 0.0095
pcm-variant GLSSA13
spintype no-spin
subspace-rotation-factor 1 yes
symmetries automatic
symmetry-threshold 0.0001



---------- Setting up symmetries ----------

Found 16 point-group symmetries of the bravais lattice
Found 16 space-group symmetries with basis
Applied RMS atom displacement 0 bohrs to make symmetries exact.

---------- Initializing the Grid ----------
R = 
[      7.93671            0            0  ]
[            0      7.93671            0  ]
[            0            0      65.1953  ]
unit cell volume = 4106.75
G =
[   0.791661          0          0  ]
[         -0   0.791661          0  ]
[          0         -0  0.0963748  ]
Minimum fftbox size, Smin = [  24  24  188  ]
Chosen fftbox size, S = [  24  24  192  ]

---------- Exchange Correlation functional ----------
Initalized PBE GGA exchange.
Initalized PBE GGA correlation.

---------- Setting up pseudopotentials ----------
Width of ionic core gaussian charges (only for fluid interactions / plotting) set to 0

Reading pseudopotential file '/net/software/testing/software/jdftx/1.7.0-foss-2021b-mkl/share/jdftx/pseudopotentials/SG15/Na_ONCV_PBE.upf':
  'Na' pseudopotential, 'PBE' functional
  Generated using ONCVPSP code by D. R. Hamann
  Author: Martin Schlipf and Francois Gygi  Date: 150915.
  9 valence electrons, 3 orbitals, 4 projectors, 1992 radial grid points, with lMax = 1
  Transforming local potential to a uniform radial grid of dG=0.02 with 821 points.
  Transforming nonlocal projectors to a uniform radial grid of dG=0.02 with 307 points.
    2S    l: 0   occupation:  2.0   eigenvalue: -2.085640
    2P    l: 1   occupation:  6.0   eigenvalue: -1.053708
    3S    l: 0   occupation:  1.0   eigenvalue: -0.100838
  Transforming atomic orbitals to a uniform radial grid of dG=0.02 with 307 points.
  Core radius for overlap checks: 2.01 bohrs.
  Reading pulay file /net/software/testing/software/jdftx/1.7.0-foss-2021b-mkl/share/jdftx/pseudopotentials/SG15/Na_ONCV_PBE.pulay ... using dE_dnG = -1.681960e+00 computed for Ecut = 10.

Initialized 1 species with 6 total atoms.

Folded 1 k-points by 11x11x1 to 121 k-points.

---------- Setting up k-points, bands, fillings ----------
Reduced to 21 k-points under symmetry. 
Computing the number of bands and number of electrons
Calculating initial fillings.
nElectrons:  54.000000   nBands: 30   nStates: 21

----- Setting up reduced wavefunction bases (one per k-point) -----
average nbasis = 6204.901 , ideal nbasis = 6202.859

----- Initializing Supercell corresponding to k-point mesh -----
Lattice vector linear combinations in supercell:
[  11   0   0  ]
[   0  11   0  ]
[   0   0   1  ]
Supercell lattice vectors:
[  87.3039  0  0  ]
[  0  87.3039  0  ]
[  0  0  65.1953  ]

---------- Setting up coulomb interaction ----------
Setting up double-sized grid for truncated Coulomb potentials:
R = 
[      7.93671            0            0  ]
[            0      7.93671            0  ]
[            0            0      130.391  ]
unit cell volume = 8213.49
G =
[   0.791661          0          0  ]
[         -0   0.791661          0  ]
[          0         -0  0.0481874  ]
Chosen fftbox size, S = [  24  24  384  ]
Integer grid location selected as the embedding center:
   Grid: [  0  0  96  ]
   Lattice: [  0  0  0.5  ]
   Cartesian: [  0  0  32.5977  ]
Constructing Wigner-Seitz cell: 6 faces (6 quadrilaterals, 0 hexagons)
Range-separation parameter for embedded mesh potentials due to point charges: 0.735136 bohrs.
Initialized slab truncation along lattice direction 001

---------- Setting up 2D ewald sum ----------
Optimum gaussian width for ewald sums = 4.734710 bohr.
Real space sums over 225 unit cells with max indices [  7  7  0  ]
Reciprocal space sums over 81 terms with max indices [  4  4  0  ]

---------- Allocating electronic variables ----------
Initializing wave functions:  linear combination of atomic orbitals
Na pseudo-atom occupations:   s ( 2 1 )  p ( 6 )
	FillingsUpdate:  mu: -0.067441069  nElectrons: 54.000000
LCAOMinimize: Iter:   0  F: -250.0240248968036383  |grad|_K:  2.849e-03  alpha:  1.000e+00
	FillingsUpdate:  mu: -0.152599242  nElectrons: 54.000000
LCAOMinimize: Iter:   1  F: -250.0350055975249859  |grad|_K:  6.817e-04  alpha:  1.474e-01  linmin:  7.972e-02  cgtest: -4.548e-01  t[s]:      0.66
LCAOMinimize: 	Predicted alpha/alphaT>3.000000, increasing alphaT to 4.420835e-01.
	FillingsUpdate:  mu: -0.157265233  nElectrons: 54.000000
LCAOMinimize: Iter:   2  F: -250.0371779177561393  |grad|_K:  6.658e-04  alpha:  6.598e-01  linmin: -1.516e-03  cgtest:  7.409e-01  t[s]:      0.98
	FillingsUpdate:  mu: -0.139303347  nElectrons: 54.000000
LCAOMinimize: Iter:   3  F: -250.0377673902258664  |grad|_K:  6.929e-05  alpha:  1.300e-01  linmin:  1.907e-04  cgtest: -1.932e-01  t[s]:      1.21
LCAOMinimize: 	Predicted alpha/alphaT>3.000000, increasing alphaT to 3.900624e-01.
	FillingsUpdate:  mu: -0.139920143  nElectrons: 54.000000
LCAOMinimize: Iter:   4  F: -250.0378098987158921  |grad|_K:  5.139e-06  alpha:  8.696e-01  linmin: -5.826e-03  cgtest:  3.856e-01  t[s]:      1.52
LCAOMinimize: Encountered beta<0, resetting CG.
	FillingsUpdate:  mu: -0.140047486  nElectrons: 54.000000
LCAOMinimize: Iter:   5  F: -250.0378099686350595  |grad|_K:  4.065e-06  alpha:  2.624e-01  linmin: -3.245e-05  cgtest:  4.722e-04  t[s]:      1.75
	FillingsUpdate:  mu: -0.139918418  nElectrons: 54.000000
LCAOMinimize: Iter:   6  F: -250.0378100153412220  |grad|_K:  5.800e-07  alpha:  2.798e-01  linmin:  3.575e-04  cgtest: -7.192e-03  t[s]:      1.98
LCAOMinimize: Converged (|Delta F|<1.000000e-06 for 2 iters).


---- Citations for features of the code used in this run ----

   Software package:
      R. Sundararaman, K. Letchworth-Weaver, K.A. Schwarz, D. Gunceler, Y. Ozhabes and T.A. Arias, 'JDFTx: software for joint density-functional theory', SoftwareX 6, 278 (2017)

   gga-PBE exchange-correlation functional:
      J.P. Perdew, K. Burke and M. Ernzerhof, Phys. Rev. Lett. 77, 3865 (1996)

   Pseudopotentials:
      M Schlipf and F Gygi, Comput. Phys. Commun. 196, 36 (2015)

   Truncated Coulomb potentials:
      R. Sundararaman and T.A. Arias, Phys. Rev. B 87, 165122 (2013)

   Total energy minimization with Auxiliary Hamiltonian:
      C. Freysoldt, S. Boeck, and J. Neugebauer, Phys. Rev. B 79, 241103(R) (2009)

   Linear-tetrahedron sampling for density of states:
      G. Lehmann and M. Taut, Phys. status solidi (b) 54, 469 (1972)

This list may not be complete. Please suggest additional citations or
report any other bugs at https://github.com/shankar1729/jdftx/issues

Initialization completed successfully at t[s]:      2.01


-------- Electronic minimization -----------
	FillingsUpdate:  mu: -0.139918418  nElectrons: 54.000000
ElecMinimize: Iter:   0  F: -250.037810015339886  |grad|_K:  5.601e-04  alpha:  1.000e+00
	FillingsUpdate:  mu: -0.129711457  nElectrons: 54.000000
	SubspaceRotationAdjust: set factor to 1
ElecMinimize: Iter:   1  F: -250.395320502371902  |grad|_K:  1.429e-04  alpha:  2.917e-01  linmin:  3.105e-03  t[s]:      2.55
	FillingsUpdate:  mu: -0.136179754  nElectrons: 54.000000
	SubspaceRotationAdjust: set factor to 1.01
ElecMinimize: Iter:   2  F: -250.423411932099725  |grad|_K:  6.218e-05  alpha:  3.529e-01  linmin:  8.161e-06  t[s]:      2.88
	FillingsUpdate:  mu: -0.115399807  nElectrons: 54.000000
	SubspaceRotationAdjust: set factor to 0.94
ElecMinimize: Iter:   3  F: -250.431264737912812  |grad|_K:  5.451e-05  alpha:  5.187e-01  linmin:  1.067e-06  t[s]:      3.21
	FillingsUpdate:  mu: -0.149413932  nElectrons: 54.000000
	SubspaceRotationAdjust: set factor to 0.694
ElecMinimize: Iter:   4  F: -250.436262351358096  |grad|_K:  6.166e-05  alpha:  4.284e-01  linmin:  4.434e-05  t[s]:      3.54
	FillingsUpdate:  mu: -0.112206220  nElectrons: 54.000000
	SubspaceRotationAdjust: set factor to 0.533
ElecMinimize: Iter:   5  F: -250.442215504636494  |grad|_K:  4.791e-05  alpha:  4.011e-01  linmin:  3.772e-05  t[s]:      3.87
	FillingsUpdate:  mu: -0.104631827  nElectrons: 54.000000
	SubspaceRotationAdjust: set factor to 0.616
ElecMinimize: Iter:   6  F: -250.446644447364093  |grad|_K:  3.778e-05  alpha:  4.955e-01  linmin: -7.049e-05  t[s]:      4.20
	FillingsUpdate:  mu: -0.118485521  nElectrons: 54.000000

Dumping 'X.fillings' ... done
Dumping 'X.wfns' ... done
Dumping 'X.force' ... done
Dumping 'X.eigenvals' ... done
	SubspaceRotationAdjust: set factor to 0.531
ElecMinimize: Iter:   7  F: -250.448906630725702  |grad|_K:  2.658e-05  alpha:  4.038e-01  linmin:  9.009e-06  t[s]:      4.59
	FillingsUpdate:  mu: -0.109311592  nElectrons: 54.000000
	SubspaceRotationAdjust: set factor to 0.518
ElecMinimize: Iter:   8  F: -250.450194975042621  |grad|_K:  2.006e-05  alpha:  4.660e-01  linmin:  5.027e-06  t[s]:      4.92
	FillingsUpdate:  mu: -0.108442942  nElectrons: 54.000000
	SubspaceRotationAdjust: set factor to 0.542
ElecMinimize: Iter:   9  F: -250.451011897925014  |grad|_K:  1.728e-05  alpha:  5.187e-01  linmin:  1.062e-06  t[s]:      5.25
	FillingsUpdate:  mu: -0.113418006  nElectrons: 54.000000
	SubspaceRotationAdjust: set factor to 0.521
ElecMinimize: Iter:  10  F: -250.451611671736998  |grad|_K:  1.497e-05  alpha:  5.132e-01  linmin:  1.245e-06  t[s]:      5.58
	FillingsUpdate:  mu: -0.111025839  nElectrons: 54.000000
	SubspaceRotationAdjust: set factor to 0.522
ElecMinimize: Iter:  11  F: -250.452064339054289  |grad|_K:  1.272e-05  alpha:  5.157e-01  linmin:  2.911e-06  t[s]:      5.91
	FillingsUpdate:  mu: -0.110641014  nElectrons: 54.000000
	SubspaceRotationAdjust: set factor to 0.545
ElecMinimize: Iter:  12  F: -250.452393998247857  |grad|_K:  1.042e-05  alpha:  5.205e-01  linmin:  5.164e-06  t[s]:      6.24
	FillingsUpdate:  mu: -0.112257124  nElectrons: 54.000000
	SubspaceRotationAdjust: set factor to 0.563
ElecMinimize: Iter:  13  F: -250.452601661944641  |grad|_K:  8.661e-06  alpha:  4.884e-01  linmin:  1.378e-06  t[s]:      6.57
	FillingsUpdate:  mu: -0.111178143  nElectrons: 54.000000
	SubspaceRotationAdjust: set factor to 0.578
ElecMinimize: Iter:  14  F: -250.452753588819888  |grad|_K:  7.534e-06  alpha:  5.170e-01  linmin: -9.862e-08  t[s]:      6.89
	FillingsUpdate:  mu: -0.111563034  nElectrons: 54.000000

Dumping 'X.fillings' ... done
Dumping 'X.wfns' ... done
Dumping 'X.force' ... done
Dumping 'X.eigenvals' ... done
	SubspaceRotationAdjust: set factor to 0.583
ElecMinimize: Iter:  15  F: -250.452874735892294  |grad|_K:  6.596e-06  alpha:  5.447e-01  linmin:  1.356e-06  t[s]:      7.31
	FillingsUpdate:  mu: -0.112138448  nElectrons: 54.000000
	SubspaceRotationAdjust: set factor to 0.585
ElecMinimize: Iter:  16  F: -250.452960970325876  |grad|_K:  5.477e-06  alpha:  5.061e-01  linmin:  1.133e-06  t[s]:      7.64
	FillingsUpdate:  mu: -0.111553543  nElectrons: 54.000000
	SubspaceRotationAdjust: set factor to 0.59
ElecMinimize: Iter:  17  F: -250.453019009851573  |grad|_K:  4.562e-06  alpha:  4.940e-01  linmin:  8.685e-07  t[s]:      7.96
	FillingsUpdate:  mu: -0.112635900  nElectrons: 54.000000
	SubspaceRotationAdjust: set factor to 0.602
ElecMinimize: Iter:  18  F: -250.453062116953333  |grad|_K:  4.054e-06  alpha:  5.288e-01  linmin:  6.464e-06  t[s]:      8.29
	FillingsUpdate:  mu: -0.112668758  nElectrons: 54.000000
	SubspaceRotationAdjust: set factor to 0.625
ElecMinimize: Iter:  19  F: -250.453097137419149  |grad|_K:  3.610e-06  alpha:  5.440e-01  linmin:  4.253e-07  t[s]:      8.62
	FillingsUpdate:  mu: -0.112212603  nElectrons: 54.000000
	SubspaceRotationAdjust: set factor to 0.624
ElecMinimize: Iter:  20  F: -250.453123868704068  |grad|_K:  3.124e-06  alpha:  5.236e-01  linmin:  4.823e-07  t[s]:      8.95
	FillingsUpdate:  mu: -0.113139856  nElectrons: 54.000000
	SubspaceRotationAdjust: set factor to 0.587
ElecMinimize: Iter:  21  F: -250.453142783223853  |grad|_K:  2.603e-06  alpha:  4.946e-01  linmin:  1.717e-07  t[s]:      9.28
	FillingsUpdate:  mu: -0.112607471  nElectrons: 54.000000
	SubspaceRotationAdjust: set factor to 0.587
ElecMinimize: Iter:  22  F: -250.453156362154573  |grad|_K:  2.235e-06  alpha:  5.115e-01  linmin:  2.116e-07  t[s]:      9.61
	FillingsUpdate:  mu: -0.112446057  nElectrons: 54.000000

Dumping 'X.fillings' ... done
Dumping 'X.wfns' ... done
Dumping 'X.force' ... done
Dumping 'X.eigenvals' ... done
	SubspaceRotationAdjust: set factor to 0.611
ElecMinimize: Iter:  23  F: -250.453167258783054  |grad|_K:  2.064e-06  alpha:  5.570e-01  linmin:  3.840e-06  t[s]:     10.02
	FillingsUpdate:  mu: -0.112992945  nElectrons: 54.000000
	SubspaceRotationAdjust: set factor to 0.601
ElecMinimize: Iter:  24  F: -250.453176158008432  |grad|_K:  1.860e-06  alpha:  5.333e-01  linmin:  1.004e-06  t[s]:     10.35
	FillingsUpdate:  mu: -0.112528856  nElectrons: 54.000000
	SubspaceRotationAdjust: set factor to 0.587
ElecMinimize: Iter:  25  F: -250.453183389727570  |grad|_K:  1.625e-06  alpha:  5.334e-01  linmin:  6.758e-07  t[s]:     10.68
	FillingsUpdate:  mu: -0.112581852  nElectrons: 54.000000
	SubspaceRotationAdjust: set factor to 0.596
ElecMinimize: Iter:  26  F: -250.453188793652004  |grad|_K:  1.391e-06  alpha:  5.227e-01  linmin:  8.684e-07  t[s]:     11.01
	FillingsUpdate:  mu: -0.112801327  nElectrons: 54.000000
	SubspaceRotationAdjust: set factor to 0.594
ElecMinimize: Iter:  27  F: -250.453192682773306  |grad|_K:  1.210e-06  alpha:  5.130e-01  linmin:  9.228e-07  t[s]:     11.33
	FillingsUpdate:  mu: -0.112498679  nElectrons: 54.000000
	SubspaceRotationAdjust: set factor to 0.589
ElecMinimize: Iter:  28  F: -250.453195815006126  |grad|_K:  1.126e-06  alpha:  5.463e-01  linmin:  3.142e-06  t[s]:     11.66
	FillingsUpdate:  mu: -0.112609466  nElectrons: 54.000000
	SubspaceRotationAdjust: set factor to 0.599
ElecMinimize: Iter:  29  F: -250.453198677834536  |grad|_K:  1.068e-06  alpha:  5.765e-01  linmin:  1.047e-06  t[s]:     11.99
	FillingsUpdate:  mu: -0.112655328  nElectrons: 54.000000
	SubspaceRotationAdjust: set factor to 0.608
ElecMinimize: Iter:  30  F: -250.453201137310742  |grad|_K:  9.617e-07  alpha:  5.503e-01  linmin:  3.001e-07  t[s]:     12.32
	FillingsUpdate:  mu: -0.112503059  nElectrons: 54.000000

Dumping 'X.fillings' ... done
Dumping 'X.wfns' ... done
Dumping 'X.force' ... done
Dumping 'X.eigenvals' ... done
	SubspaceRotationAdjust: set factor to 0.602
ElecMinimize: Iter:  31  F: -250.453203068677368  |grad|_K:  8.673e-07  alpha:  5.330e-01  linmin:  7.559e-08  t[s]:     12.73
	FillingsUpdate:  mu: -0.112675837  nElectrons: 54.000000
	SubspaceRotationAdjust: set factor to 0.596
ElecMinimize: Iter:  32  F: -250.453204665821772  |grad|_K:  7.945e-07  alpha:  5.420e-01  linmin:  7.773e-07  t[s]:     13.06
	FillingsUpdate:  mu: -0.112617875  nElectrons: 54.000000
	SubspaceRotationAdjust: set factor to 0.604
ElecMinimize: Iter:  33  F: -250.453206083416603  |grad|_K:  7.586e-07  alpha:  5.734e-01  linmin:  3.580e-06  t[s]:     13.39
	FillingsUpdate:  mu: -0.112585450  nElectrons: 54.000000
	SubspaceRotationAdjust: set factor to 0.617
ElecMinimize: Iter:  34  F: -250.453207396378644  |grad|_K:  7.363e-07  alpha:  5.825e-01  linmin:  1.377e-06  t[s]:     13.72
	FillingsUpdate:  mu: -0.112724566  nElectrons: 54.000000
	SubspaceRotationAdjust: set factor to 0.613
ElecMinimize: Iter:  35  F: -250.453208572310416  |grad|_K:  6.815e-07  alpha:  5.537e-01  linmin:  8.528e-07  t[s]:     14.05
	FillingsUpdate:  mu: -0.112593604  nElectrons: 54.000000
	SubspaceRotationAdjust: set factor to 0.603
ElecMinimize: Iter:  36  F: -250.453209560836711  |grad|_K:  6.184e-07  alpha:  5.434e-01  linmin:  4.349e-07  t[s]:     14.37
	FillingsUpdate:  mu: -0.112650881  nElectrons: 54.000000
	SubspaceRotationAdjust: set factor to 0.61
ElecMinimize: Iter:  37  F: -250.453210397454455  |grad|_K:  5.761e-07  alpha:  5.585e-01  linmin:  8.200e-07  t[s]:     14.70
ElecMinimize: Converged (|Delta F|<1.000000e-06 for 2 iters).
Setting wave functions to eigenvectors of Hamiltonian

# Ionic positions in lattice coordinates:
ion Na   0.000000000000000   0.000000000000000   0.347830000000000 1
ion Na   0.500000000000000   0.500000000000000   0.408700000000000 1
ion Na   0.000000000000000   0.000000000000000   0.469570000000000 1
ion Na   0.500000000000000   0.500000000000000   0.530430000000000 1
ion Na   0.000000000000000   0.000000000000000   0.591300000000000 1
ion Na   0.500000000000000   0.500000000000000   0.652170000000000 1

# Forces in Lattice coordinates:
force Na   0.000000000000000  -0.000000000000000   0.042042612835006 1
force Na   0.000000000000000   0.000000000000000   0.011724345110964 1
force Na  -0.000000000000000   0.000000000000000   0.005868476239274 1
force Na   0.000000000000000   0.000000000000000  -0.005868476239274 1
force Na   0.000000000000000   0.000000000000000  -0.011724345110737 1
force Na   0.000000000000000  -0.000000000000000  -0.042042612835006 1

# Energy components:
   Eewald =    -1248.3434158212583043
       EH =    -1054.3084764528546202
     Eloc =     2038.0682701303358044
      Enl =      -69.2911859561211827
   Epulay =        0.0050183795231110
      Exc =      -35.8460831999766540
       KE =      119.2857715830186578
-------------------------------------
     Etot =     -250.4301013373331841
       TS =        0.0231090601212630
-------------------------------------
        F =     -250.4532103974544555

IonicMinimize: Iter:   0  F: -250.453210397454455  |grad|_K:  2.252e-04  t[s]:     14.77
IonicMinimize: None of the convergence criteria satisfied after 0 iterations.

#--- Lowdin population analysis ---
# oxidation-state Na +0.068 +0.045 +0.040 +0.040 +0.045 +0.068


Dumping 'X.fillings' ... done
Dumping 'X.wfns' ... done
Dumping 'X.ionpos' ... done
Dumping 'X.lattice' ... done
Dumping 'X.n' ... done
Dumping 'X.eigenvals' ... done
Dumping 'X.eigStats' ... 
	eMin: -2.306987 at state 5 ( [ +0.000000 +0.454545 +0.000000 ] spin 0 )
	HOMO: -0.113122 at state 10 ( [ +0.090909 +0.454545 +0.000000 ] spin 0 )
	mu  : -0.112651
	LUMO: -0.112081 at state 16 ( [ +0.272727 +0.363636 +0.000000 ] spin 0 )
	eMax: -0.014012 at state 20 ( [ +0.454545 +0.454545 +0.000000 ] spin 0 )
	HOMO-LUMO gap: +0.001041
	Optical gap  : +0.005430 at state 10 ( [ +0.090909 +0.454545 +0.000000 ] spin 0 )
Dumping 'X.dos' ... done.
End date and time: Wed Nov  8 23:17:09 2023  (Duration: 0-0:00:14.87)
Done!

*************** JDFTx 1.7.0  ***************

Start date and time: Wed Nov  8 23:17:11 2023
Executable jdftx with command-line: -m -i X.in -o X.out
Running on hosts (process indices):  ac0015 (0-20)
Divided in process groups (process indices):  0 (0)  1 (1)  2 (2)  3 (3)  4 (4)  5 (5)  6 (6)  7 (7)  8 (8)  9 (9)  10 (10)  11 (11)  12 (12)  13 (13)  14 (14)  15 (15)  16 (16)  17 (17)  18 (18)  19 (19)  20 (20)
Resource initialization completed at t[s]:      0.02
Run totals: 21 processes, 21 threads, 0 GPUs


Input parsed successfully to the following command list (including defaults):

basis kpoint-dependent
cache-projectors no
coords-type Lattice
core-overlap-check vector
coulomb-interaction Slab 001
coulomb-truncation-embed 0 0 0.5
davidson-band-ratio 1.1
density-of-states Etol 1.000000e-06 Esigma 0.000000e+00 \
		Complete \
	Total \
		Occupied \
	Total
dump End State IonicPositions Lattice ElecDensity CoreDensity EigStats DOS
dump Electronic State Forces
dump Ionic State IonicPositions Forces Lattice DOS
dump-interval Electronic 8
dump-interval Ionic 4
dump-name X.$var
elec-cutoff 20
elec-eigen-algo Davidson
elec-ex-corr gga-PBE
elec-smearing Fermi 0.0095
electronic-minimize  \
	dirUpdateScheme      FletcherReeves \
	linminMethod         DirUpdateRecommended \
	nIterations          2000 \
	history              15 \
	knormThreshold       0 \
	energyDiffThreshold  1e-07 \
	nEnergyDiff          2 \
	alphaTstart          1 \
	alphaTmin            1e-10 \
	updateTestStepSize   yes \
	alphaTreduceFactor   0.1 \
	alphaTincreaseFactor 3 \
	nAlphaAdjustMax      3 \
	wolfeEnergy          0.0001 \
	wolfeGradient        0.9 \
	fdTest               no
exchange-regularization WignerSeitzTruncated
fluid None
fluid-ex-corr (null) lda-PZ
fluid-gummel-loop 10 1.000000e-05
fluid-minimize  \
	dirUpdateScheme      PolakRibiere \
	linminMethod         DirUpdateRecommended \
	nIterations          100 \
	history              15 \
	knormThreshold       0 \
	energyDiffThreshold  0 \
	nEnergyDiff          2 \
	alphaTstart          1 \
	alphaTmin            1e-10 \
	updateTestStepSize   yes \
	alphaTreduceFactor   0.1 \
	alphaTincreaseFactor 3 \
	nAlphaAdjustMax      3 \
	wolfeEnergy          0.0001 \
	wolfeGradient        0.9 \
	fdTest               no
fluid-solvent H2O 55.338 ScalarEOS \
	epsBulk 78.4 \
	pMol 0.92466 \
	epsInf 1.77 \
	Pvap 1.06736e-10 \
	sigmaBulk 4.62e-05 \
	Rvdw 2.61727 \
	Res 1.42 \
	tauNuc 343133 \
	poleEl 15 7 1
forces-output-coords Positions
ion Na   0.000000000000000   0.000000000000000   0.347830000000000 1
ion Na   0.500000000000000   0.500000000000000   0.408700000000000 1
ion Na   0.000000000000000   0.000000000000000   0.469570000000000 1
ion Na   0.500000000000000   0.500000000000000   0.530430000000000 1
ion Na   0.000000000000000   0.000000000000000   0.591300000000000 1
ion Na   0.500000000000000   0.500000000000000   0.652170000000000 1
ion-species SG15/$ID_ONCV_PBE.upf
ion-width 0
ionic-minimize  \
	dirUpdateScheme      L-BFGS \
	linminMethod         DirUpdateRecommended \
	nIterations          0 \
	history              15 \
	knormThreshold       0.0001 \
	energyDiffThreshold  1e-06 \
	nEnergyDiff          2 \
	alphaTstart          1 \
	alphaTmin            1e-10 \
	updateTestStepSize   yes \
	alphaTreduceFactor   0.1 \
	alphaTincreaseFactor 3 \
	nAlphaAdjustMax      3 \
	wolfeEnergy          0.0001 \
	wolfeGradient        0.9 \
	fdTest               no
kpoint   0.000000000000   0.000000000000   0.000000000000  1.00000000000000
kpoint-folding 11 11 1 
latt-move-scale 1 1 1
latt-scale 1 1 1 
lattice  \
	   7.936714821600003   -0.000000000000000   -0.000000000000000  \
	   0.000000000000000    7.936714821600003   -0.000000000000000  \
	   0.000000000000000    0.000000000000000   65.195307053999997 
lattice-minimize  \
	dirUpdateScheme      L-BFGS \
	linminMethod         DirUpdateRecommended \
	nIterations          0 \
	history              15 \
	knormThreshold       0 \
	energyDiffThreshold  1e-06 \
	nEnergyDiff          2 \
	alphaTstart          1 \
	alphaTmin            1e-10 \
	updateTestStepSize   yes \
	alphaTreduceFactor   0.1 \
	alphaTincreaseFactor 3 \
	nAlphaAdjustMax      3 \
	wolfeEnergy          0.0001 \
	wolfeGradient        0.9 \
	fdTest               no
lcao-params -1 1e-06 0.0095
pcm-variant GLSSA13
spintype no-spin
subspace-rotation-factor 1 yes
symmetries automatic
symmetry-threshold 0.0001
wavefunction read X.wfns 30 10.000000



---------- Setting up symmetries ----------

Found 16 point-group symmetries of the bravais lattice
Found 16 space-group symmetries with basis
Applied RMS atom displacement 0 bohrs to make symmetries exact.

---------- Initializing the Grid ----------
R = 
[      7.93671            0            0  ]
[            0      7.93671            0  ]
[            0            0      65.1953  ]
unit cell volume = 4106.75
G =
[   0.791661          0          0  ]
[         -0   0.791661          0  ]
[          0         -0  0.0963748  ]
Minimum fftbox size, Smin = [  32  32  264  ]
Chosen fftbox size, S = [  32  32  270  ]

---------- Exchange Correlation functional ----------
Initalized PBE GGA exchange.
Initalized PBE GGA correlation.

---------- Setting up pseudopotentials ----------
Width of ionic core gaussian charges (only for fluid interactions / plotting) set to 0

Reading pseudopotential file '/net/software/testing/software/jdftx/1.7.0-foss-2021b-mkl/share/jdftx/pseudopotentials/SG15/Na_ONCV_PBE.upf':
  'Na' pseudopotential, 'PBE' functional
  Generated using ONCVPSP code by D. R. Hamann
  Author: Martin Schlipf and Francois Gygi  Date: 150915.
  9 valence electrons, 3 orbitals, 4 projectors, 1992 radial grid points, with lMax = 1
  Transforming local potential to a uniform radial grid of dG=0.02 with 1112 points.
  Transforming nonlocal projectors to a uniform radial grid of dG=0.02 with 432 points.
    2S    l: 0   occupation:  2.0   eigenvalue: -2.085640
    2P    l: 1   occupation:  6.0   eigenvalue: -1.053708
    3S    l: 0   occupation:  1.0   eigenvalue: -0.100838
  Transforming atomic orbitals to a uniform radial grid of dG=0.02 with 432 points.
  Core radius for overlap checks: 2.01 bohrs.
  Reading pulay file /net/software/testing/software/jdftx/1.7.0-foss-2021b-mkl/share/jdftx/pseudopotentials/SG15/Na_ONCV_PBE.pulay ... using dE_dnG = -2.946487e-03 computed for Ecut = 20.

Initialized 1 species with 6 total atoms.

Folded 1 k-points by 11x11x1 to 121 k-points.

---------- Setting up k-points, bands, fillings ----------
Reduced to 21 k-points under symmetry. 
Computing the number of bands and number of electrons
Calculating initial fillings.
nElectrons:  54.000000   nBands: 30   nStates: 21

----- Setting up reduced wavefunction bases (one per k-point) -----
average nbasis = 17547.231 , ideal nbasis = 17544.334

----- Initializing Supercell corresponding to k-point mesh -----
Lattice vector linear combinations in supercell:
[  11   0   0  ]
[   0  11   0  ]
[   0   0   1  ]
Supercell lattice vectors:
[  87.3039  0  0  ]
[  0  87.3039  0  ]
[  0  0  65.1953  ]

---------- Setting up coulomb interaction ----------
Setting up double-sized grid for truncated Coulomb potentials:
R = 
[      7.93671            0            0  ]
[            0      7.93671            0  ]
[            0            0      130.391  ]
unit cell volume = 8213.49
G =
[   0.791661          0          0  ]
[         -0   0.791661          0  ]
[          0         -0  0.0481874  ]
Chosen fftbox size, S = [  32  32  540  ]
Integer grid location selected as the embedding center:
   Grid: [  0  0  135  ]
   Lattice: [  0  0  0.5  ]
   Cartesian: [  0  0  32.5977  ]
Constructing Wigner-Seitz cell: 6 faces (6 quadrilaterals, 0 hexagons)
Range-separation parameter for embedded mesh potentials due to point charges: 0.628283 bohrs.
Initialized slab truncation along lattice direction 001

---------- Setting up 2D ewald sum ----------
Optimum gaussian width for ewald sums = 4.734710 bohr.
Real space sums over 225 unit cells with max indices [  7  7  0  ]
Reciprocal space sums over 81 terms with max indices [  4  4  0  ]

---------- Allocating electronic variables ----------
Initializing wave functions:  reading from 'X.wfns'


---- Citations for features of the code used in this run ----

   Software package:
      R. Sundararaman, K. Letchworth-Weaver, K.A. Schwarz, D. Gunceler, Y. Ozhabes and T.A. Arias, 'JDFTx: software for joint density-functional theory', SoftwareX 6, 278 (2017)

   gga-PBE exchange-correlation functional:
      J.P. Perdew, K. Burke and M. Ernzerhof, Phys. Rev. Lett. 77, 3865 (1996)

   Pseudopotentials:
      M Schlipf and F Gygi, Comput. Phys. Commun. 196, 36 (2015)

   Truncated Coulomb potentials:
      R. Sundararaman and T.A. Arias, Phys. Rev. B 87, 165122 (2013)

   Total energy minimization with Auxiliary Hamiltonian:
      C. Freysoldt, S. Boeck, and J. Neugebauer, Phys. Rev. B 79, 241103(R) (2009)

   Linear-tetrahedron sampling for density of states:
      G. Lehmann and M. Taut, Phys. status solidi (b) 54, 469 (1972)

This list may not be complete. Please suggest additional citations or
report any other bugs at https://github.com/shankar1729/jdftx/issues

Initialization completed successfully at t[s]:      0.36


Setting the auxilliary hamiltonian equal to the subspace hamiltonian.

-------- Electronic minimization -----------
	FillingsUpdate:  mu: -0.134660489  nElectrons: 54.000000
ElecMinimize: Iter:   0  F: -250.453884883124147  |grad|_K:  1.293e-03  alpha:  1.000e+00
	FillingsUpdate:  mu: -0.073484064  nElectrons: 54.000000
	SubspaceRotationAdjust: set factor to 0.998
ElecMinimize: Iter:   1  F: -255.066631538274635  |grad|_K:  4.027e-04  alpha:  2.749e-01  linmin:  1.713e-02  t[s]:      3.24
	FillingsUpdate:  mu: -0.131533877  nElectrons: 54.000000
	SubspaceRotationAdjust: set factor to 0.916
ElecMinimize: Iter:   2  F: -255.536317896714621  |grad|_K:  1.036e-04  alpha:  2.880e-01  linmin: -1.119e-03  t[s]:      4.55
	FillingsUpdate:  mu: -0.065891369  nElectrons: 54.000000
	SubspaceRotationAdjust: set factor to 0.602
ElecMinimize: Iter:   3  F: -255.565555941691997  |grad|_K:  5.074e-05  alpha:  2.447e-01  linmin: -1.326e-05  t[s]:      5.88
	FillingsUpdate:  mu: -0.110423913  nElectrons: 54.000000
	SubspaceRotationAdjust: set factor to 0.354
ElecMinimize: Iter:   4  F: -255.572227533575187  |grad|_K:  2.401e-05  alpha:  2.340e-01  linmin:  1.016e-04  t[s]:      7.21
	FillingsUpdate:  mu: -0.104114958  nElectrons: 54.000000
	SubspaceRotationAdjust: set factor to 0.471
ElecMinimize: Iter:   5  F: -255.574305334131708  |grad|_K:  1.478e-05  alpha:  3.289e-01  linmin:  5.601e-06  t[s]:      8.53
	FillingsUpdate:  mu: -0.094784459  nElectrons: 54.000000
	SubspaceRotationAdjust: set factor to 0.453
ElecMinimize: Iter:   6  F: -255.575310319529621  |grad|_K:  1.103e-05  alpha:  4.168e-01  linmin:  1.566e-05  t[s]:      9.88
	FillingsUpdate:  mu: -0.099899813  nElectrons: 54.000000

Dumping 'X.fillings' ... done
Dumping 'X.wfns' ... done
Dumping 'X.force' ... done
Dumping 'X.eigenvals' ... done
	SubspaceRotationAdjust: set factor to 0.463
ElecMinimize: Iter:   7  F: -255.576025020447986  |grad|_K:  9.424e-06  alpha:  5.333e-01  linmin:  1.214e-05  t[s]:     11.34
	FillingsUpdate:  mu: -0.102465086  nElectrons: 54.000000
	SubspaceRotationAdjust: set factor to 0.459
ElecMinimize: Iter:   8  F: -255.576450390034410  |grad|_K:  6.732e-06  alpha:  4.341e-01  linmin:  2.867e-06  t[s]:     12.65
	FillingsUpdate:  mu: -0.099864284  nElectrons: 54.000000
	SubspaceRotationAdjust: set factor to 0.448
ElecMinimize: Iter:   9  F: -255.576677300859217  |grad|_K:  5.104e-06  alpha:  4.530e-01  linmin:  2.355e-06  t[s]:     13.97
	FillingsUpdate:  mu: -0.100435251  nElectrons: 54.000000
	SubspaceRotationAdjust: set factor to 0.474
ElecMinimize: Iter:  10  F: -255.576812369536981  |grad|_K:  4.169e-06  alpha:  4.690e-01  linmin:  6.623e-06  t[s]:     15.30
	FillingsUpdate:  mu: -0.101441295  nElectrons: 54.000000
	SubspaceRotationAdjust: set factor to 0.494
ElecMinimize: Iter:  11  F: -255.576915998621672  |grad|_K:  3.829e-06  alpha:  5.393e-01  linmin:  3.215e-06  t[s]:     16.61
	FillingsUpdate:  mu: -0.101033952  nElectrons: 54.000000
	SubspaceRotationAdjust: set factor to 0.511
ElecMinimize: Iter:  12  F: -255.577000926778084  |grad|_K:  3.324e-06  alpha:  5.239e-01  linmin: -2.733e-07  t[s]:     17.94
	FillingsUpdate:  mu: -0.101154930  nElectrons: 54.000000
	SubspaceRotationAdjust: set factor to 0.517
ElecMinimize: Iter:  13  F: -255.577056259572430  |grad|_K:  2.528e-06  alpha:  4.530e-01  linmin: -1.297e-06  t[s]:     19.27
	FillingsUpdate:  mu: -0.101299078  nElectrons: 54.000000
	SubspaceRotationAdjust: set factor to 0.516
ElecMinimize: Iter:  14  F: -255.577090329122626  |grad|_K:  2.033e-06  alpha:  4.818e-01  linmin: -1.180e-06  t[s]:     20.59
	FillingsUpdate:  mu: -0.101433192  nElectrons: 54.000000

Dumping 'X.fillings' ... done
Dumping 'X.wfns' ... done
Dumping 'X.force' ... done
Dumping 'X.eigenvals' ... done
	SubspaceRotationAdjust: set factor to 0.52
ElecMinimize: Iter:  15  F: -255.577113311276861  |grad|_K:  1.770e-06  alpha:  5.027e-01  linmin: -4.013e-07  t[s]:     22.07
	FillingsUpdate:  mu: -0.101639228  nElectrons: 54.000000
	SubspaceRotationAdjust: set factor to 0.534
ElecMinimize: Iter:  16  F: -255.577131335694929  |grad|_K:  1.605e-06  alpha:  5.200e-01  linmin: -4.524e-07  t[s]:     23.40
	FillingsUpdate:  mu: -0.101323455  nElectrons: 54.000000
	SubspaceRotationAdjust: set factor to 0.548
ElecMinimize: Iter:  17  F: -255.577146887263211  |grad|_K:  1.453e-06  alpha:  5.458e-01  linmin: -1.192e-06  t[s]:     24.71
	FillingsUpdate:  mu: -0.101383339  nElectrons: 54.000000
	SubspaceRotationAdjust: set factor to 0.562
ElecMinimize: Iter:  18  F: -255.577159108814840  |grad|_K:  1.272e-06  alpha:  5.234e-01  linmin:  1.457e-06  t[s]:     26.02
	FillingsUpdate:  mu: -0.101574733  nElectrons: 54.000000
	SubspaceRotationAdjust: set factor to 0.562
ElecMinimize: Iter:  19  F: -255.577167883590846  |grad|_K:  1.069e-06  alpha:  4.903e-01  linmin:  1.383e-06  t[s]:     27.33
	FillingsUpdate:  mu: -0.101201796  nElectrons: 54.000000
	SubspaceRotationAdjust: set factor to 0.548
ElecMinimize: Iter:  20  F: -255.577174217266617  |grad|_K:  9.223e-07  alpha:  5.012e-01  linmin:  4.747e-07  t[s]:     28.64
	FillingsUpdate:  mu: -0.101323070  nElectrons: 54.000000
	SubspaceRotationAdjust: set factor to 0.556
ElecMinimize: Iter:  21  F: -255.577179345070363  |grad|_K:  8.542e-07  alpha:  5.451e-01  linmin:  6.935e-07  t[s]:     29.95
	FillingsUpdate:  mu: -0.101510711  nElectrons: 54.000000
	SubspaceRotationAdjust: set factor to 0.566
ElecMinimize: Iter:  22  F: -255.577183798144489  |grad|_K:  8.196e-07  alpha:  5.519e-01  linmin:  1.467e-06  t[s]:     31.26
	FillingsUpdate:  mu: -0.101234619  nElectrons: 54.000000

Dumping 'X.fillings' ... done
Dumping 'X.wfns' ... done
Dumping 'X.force' ... done
Dumping 'X.eigenvals' ... done
	SubspaceRotationAdjust: set factor to 0.563
ElecMinimize: Iter:  23  F: -255.577187968044910  |grad|_K:  7.795e-07  alpha:  5.613e-01  linmin:  1.097e-06  t[s]:     32.70
	FillingsUpdate:  mu: -0.101386635  nElectrons: 54.000000
	SubspaceRotationAdjust: set factor to 0.57
ElecMinimize: Iter:  24  F: -255.577191649139166  |grad|_K:  7.169e-07  alpha:  5.479e-01  linmin: -5.186e-07  t[s]:     34.00
	FillingsUpdate:  mu: -0.101481775  nElectrons: 54.000000
	SubspaceRotationAdjust: set factor to 0.571
ElecMinimize: Iter:  25  F: -255.577194739474066  |grad|_K:  6.694e-07  alpha:  5.437e-01  linmin: -8.533e-07  t[s]:     35.32
	FillingsUpdate:  mu: -0.101241728  nElectrons: 54.000000
	SubspaceRotationAdjust: set factor to 0.56
ElecMinimize: Iter:  26  F: -255.577197456589801  |grad|_K:  6.368e-07  alpha:  5.482e-01  linmin: -2.335e-08  t[s]:     36.65
	FillingsUpdate:  mu: -0.101357985  nElectrons: 54.000000
	SubspaceRotationAdjust: set factor to 0.564
ElecMinimize: Iter:  27  F: -255.577200054013019  |grad|_K:  6.337e-07  alpha:  5.793e-01  linmin:  6.065e-08  t[s]:     37.97
	FillingsUpdate:  mu: -0.101347947  nElectrons: 54.000000
	SubspaceRotationAdjust: set factor to 0.576
ElecMinimize: Iter:  28  F: -255.577202792143311  |grad|_K:  6.609e-07  alpha:  6.166e-01  linmin:  2.620e-06  t[s]:     39.27
	FillingsUpdate:  mu: -0.101191795  nElectrons: 54.000000
	SubspaceRotationAdjust: set factor to 0.579
ElecMinimize: Iter:  29  F: -255.577205628075575  |grad|_K:  6.680e-07  alpha:  5.871e-01  linmin:  1.058e-06  t[s]:     40.62
	FillingsUpdate:  mu: -0.101343655  nElectrons: 54.000000
	SubspaceRotationAdjust: set factor to 0.574
ElecMinimize: Iter:  30  F: -255.577208488294986  |grad|_K:  6.547e-07  alpha:  5.797e-01  linmin:  2.563e-06  t[s]:     41.91
	FillingsUpdate:  mu: -0.101281834  nElectrons: 54.000000

Dumping 'X.fillings' ... done
Dumping 'X.wfns' ... done
Dumping 'X.force' ... done
Dumping 'X.eigenvals' ... done
	SubspaceRotationAdjust: set factor to 0.574
ElecMinimize: Iter:  31  F: -255.577211244975416  |grad|_K:  6.508e-07  alpha:  5.818e-01  linmin:  2.025e-06  t[s]:     43.34
	FillingsUpdate:  mu: -0.101271002  nElectrons: 54.000000
	SubspaceRotationAdjust: set factor to 0.579
ElecMinimize: Iter:  32  F: -255.577213988593172  |grad|_K:  6.645e-07  alpha:  5.860e-01  linmin:  3.793e-06  t[s]:     44.64
	FillingsUpdate:  mu: -0.101370783  nElectrons: 54.000000
	SubspaceRotationAdjust: set factor to 0.587
ElecMinimize: Iter:  33  F: -255.577216900476031  |grad|_K:  6.823e-07  alpha:  5.967e-01  linmin:  1.064e-05  t[s]:     45.94
	FillingsUpdate:  mu: -0.101222505  nElectrons: 54.000000
	SubspaceRotationAdjust: set factor to 0.591
ElecMinimize: Iter:  34  F: -255.577219972077103  |grad|_K:  6.958e-07  alpha:  5.971e-01  linmin:  1.064e-05  t[s]:     47.24
	FillingsUpdate:  mu: -0.101312326  nElectrons: 54.000000
	SubspaceRotationAdjust: set factor to 0.593
ElecMinimize: Iter:  35  F: -255.577222992006909  |grad|_K:  6.703e-07  alpha:  5.644e-01  linmin:  4.790e-06  t[s]:     48.53
	FillingsUpdate:  mu: -0.101315949  nElectrons: 54.000000
	SubspaceRotationAdjust: set factor to 0.597
ElecMinimize: Iter:  36  F: -255.577225632165892  |grad|_K:  6.164e-07  alpha:  5.316e-01  linmin:  1.551e-06  t[s]:     49.83
	FillingsUpdate:  mu: -0.101199317  nElectrons: 54.000000
	SubspaceRotationAdjust: set factor to 0.597
ElecMinimize: Iter:  37  F: -255.577227856428692  |grad|_K:  5.706e-07  alpha:  5.295e-01  linmin: -1.237e-06  t[s]:     51.13
	FillingsUpdate:  mu: -0.101350199  nElectrons: 54.000000
	SubspaceRotationAdjust: set factor to 0.597
ElecMinimize: Iter:  38  F: -255.577229763805803  |grad|_K:  5.351e-07  alpha:  5.296e-01  linmin: -5.582e-06  t[s]:     52.43
	FillingsUpdate:  mu: -0.101277579  nElectrons: 54.000000

Dumping 'X.fillings' ... done
Dumping 'X.wfns' ... done
Dumping 'X.force' ... done
Dumping 'X.eigenvals' ... done
	SubspaceRotationAdjust: set factor to 0.609
ElecMinimize: Iter:  39  F: -255.577231508077688  |grad|_K:  5.134e-07  alpha:  5.507e-01  linmin: -2.006e-05  t[s]:     53.86
	FillingsUpdate:  mu: -0.101222978  nElectrons: 54.000000
	SubspaceRotationAdjust: set factor to 0.618
ElecMinimize: Iter:  40  F: -255.577233136583942  |grad|_K:  4.920e-07  alpha:  5.579e-01  linmin: -2.664e-05  t[s]:     55.16
	FillingsUpdate:  mu: -0.101362392  nElectrons: 54.000000
	SubspaceRotationAdjust: set factor to 0.615
ElecMinimize: Iter:  41  F: -255.577234624251389  |grad|_K:  4.760e-07  alpha:  5.542e-01  linmin: -3.679e-05  t[s]:     56.45
	FillingsUpdate:  mu: -0.101220874  nElectrons: 54.000000
	SubspaceRotationAdjust: set factor to 0.614
ElecMinimize: Iter:  42  F: -255.577236114566659  |grad|_K:  4.973e-07  alpha:  5.910e-01  linmin: -6.101e-05  t[s]:     57.75
	FillingsUpdate:  mu: -0.101317276  nElectrons: 54.000000
	SubspaceRotationAdjust: set factor to 0.62
ElecMinimize: Iter:  43  F: -255.577238118480381  |grad|_K:  6.239e-07  alpha:  7.318e-01  linmin:  1.039e-04  t[s]:     59.05
	FillingsUpdate:  mu: -0.101332221  nElectrons: 54.000000
	SubspaceRotationAdjust: set factor to 0.627
ElecMinimize: Iter:  44  F: -255.577239942698441  |grad|_K:  5.206e-07  alpha:  3.002e-01  linmin: -2.878e-03  t[s]:     60.35
	FillingsUpdate:  mu: -0.101296023  nElectrons: 54.000000
	SubspaceRotationAdjust: set factor to 0.678
ElecMinimize: Iter:  45  F: -255.577241200768896  |grad|_K:  5.127e-07  alpha:  3.096e-01  linmin:  7.852e-04  t[s]:     61.65
	FillingsUpdate:  mu: -0.101305111  nElectrons: 54.000000
	SubspaceRotationAdjust: set factor to 0.822
ElecMinimize: Iter:  46  F: -255.577241766690094  |grad|_K:  5.432e-07  alpha:  2.033e-01  linmin: -6.800e-05  t[s]:     62.96
	FillingsUpdate:  mu: -0.101341419  nElectrons: 54.000000

Dumping 'X.fillings' ... done
Dumping 'X.wfns' ... done
Dumping 'X.force' ... done
Dumping 'X.eigenvals' ... done
	SubspaceRotationAdjust: set factor to 0.888
ElecMinimize: Iter:  47  F: -255.577242299598709  |grad|_K:  5.337e-07  alpha:  1.588e-01  linmin:  7.559e-05  t[s]:     64.41
	FillingsUpdate:  mu: -0.101372116  nElectrons: 54.000000
	SubspaceRotationAdjust: set factor to 0.888
ElecMinimize: Iter:  48  F: -255.577242755138968  |grad|_K:  5.614e-07  alpha:  1.457e-01  linmin:  5.182e-05  t[s]:     65.72
	FillingsUpdate:  mu: -0.101371186  nElectrons: 54.000000
	SubspaceRotationAdjust: set factor to 1.05
ElecMinimize: Iter:  49  F: -255.577243238678534  |grad|_K:  5.797e-07  alpha:  1.400e-01  linmin:  5.250e-06  t[s]:     67.02
	FillingsUpdate:  mu: -0.101340599  nElectrons: 54.000000
	SubspaceRotationAdjust: set factor to 1.29
ElecMinimize: Iter:  50  F: -255.577243715196857  |grad|_K:  5.554e-07  alpha:  1.286e-01  linmin: -4.134e-05  t[s]:     68.33
	FillingsUpdate:  mu: -0.101316787  nElectrons: 54.000000
	SubspaceRotationAdjust: set factor to 1.59
ElecMinimize: Iter:  51  F: -255.577244112373194  |grad|_K:  4.904e-07  alpha:  1.159e-01  linmin: -9.640e-05  t[s]:     69.66
	FillingsUpdate:  mu: -0.101330177  nElectrons: 54.000000
	SubspaceRotationAdjust: set factor to 2.24
ElecMinimize: Iter:  52  F: -255.577244412054398  |grad|_K:  4.172e-07  alpha:  1.113e-01  linmin: -2.377e-04  t[s]:     70.99
	FillingsUpdate:  mu: -0.101356824  nElectrons: 54.000000
	SubspaceRotationAdjust: set factor to 2.84
ElecMinimize: Iter:  53  F: -255.577244631058846  |grad|_K:  3.517e-07  alpha:  1.115e-01  linmin: -2.043e-04  t[s]:     72.30
	FillingsUpdate:  mu: -0.101344403  nElectrons: 54.000000
	SubspaceRotationAdjust: set factor to 3.08
ElecMinimize: Iter:  54  F: -255.577244787008993  |grad|_K:  2.886e-07  alpha:  1.114e-01  linmin: -8.061e-05  t[s]:     73.61
	FillingsUpdate:  mu: -0.101344115  nElectrons: 54.000000

Dumping 'X.fillings' ... done
Dumping 'X.wfns' ... done
Dumping 'X.force' ... done
Dumping 'X.eigenvals' ... done
	SubspaceRotationAdjust: set factor to 3.04
ElecMinimize: Iter:  55  F: -255.577244907689362  |grad|_K:  2.642e-07  alpha:  1.279e-01  linmin: -4.521e-05  t[s]:     75.05
	FillingsUpdate:  mu: -0.101387337  nElectrons: 54.000000
	SubspaceRotationAdjust: set factor to 3.47
ElecMinimize: Iter:  56  F: -255.577245029387456  |grad|_K:  2.865e-07  alpha:  1.548e-01  linmin: -1.396e-05  t[s]:     76.35
	FillingsUpdate:  mu: -0.101334027  nElectrons: 54.000000
	SubspaceRotationAdjust: set factor to 4.24
ElecMinimize: Iter:  57  F: -255.577245178563345  |grad|_K:  3.410e-07  alpha:  1.633e-01  linmin: -4.331e-07  t[s]:     77.66
	FillingsUpdate:  mu: -0.101425236  nElectrons: 54.000000
	SubspaceRotationAdjust: set factor to 4.91
ElecMinimize: Iter:  58  F: -255.577245352375172  |grad|_K:  3.709e-07  alpha:  1.349e-01  linmin:  1.229e-05  t[s]:     78.97
	FillingsUpdate:  mu: -0.101312578  nElectrons: 54.000000
	SubspaceRotationAdjust: set factor to 4.73
ElecMinimize: Iter:  59  F: -255.577245499222613  |grad|_K:  3.548e-07  alpha:  9.600e-02  linmin:  5.937e-06  t[s]:     80.28
	FillingsUpdate:  mu: -0.101417131  nElectrons: 54.000000
	SubspaceRotationAdjust: set factor to 3.99
ElecMinimize: Iter:  60  F: -255.577245607806049  |grad|_K:  3.352e-07  alpha:  7.798e-02  linmin:  5.097e-06  t[s]:     81.58
	FillingsUpdate:  mu: -0.101317411  nElectrons: 54.000000
	SubspaceRotationAdjust: set factor to 3.92
ElecMinimize: Iter:  61  F: -255.577245718872376  |grad|_K:  3.245e-07  alpha:  8.963e-02  linmin:  4.926e-06  t[s]:     82.89
	FillingsUpdate:  mu: -0.101362293  nElectrons: 54.000000
	SubspaceRotationAdjust: set factor to 4.71
ElecMinimize: Iter:  62  F: -255.577245864220941  |grad|_K:  3.500e-07  alpha:  1.251e-01  linmin: -9.914e-08  t[s]:     84.20
	FillingsUpdate:  mu: -0.101385663  nElectrons: 54.000000

Dumping 'X.fillings' ... done
Dumping 'X.wfns' ... done
Dumping 'X.force' ... done
Dumping 'X.eigenvals' ... done
	SubspaceRotationAdjust: set factor to 5.61
ElecMinimize: Iter:  63  F: -255.577246048841431  |grad|_K:  3.838e-07  alpha:  1.363e-01  linmin: -2.564e-05  t[s]:     85.65
	FillingsUpdate:  mu: -0.101293560  nElectrons: 54.000000
	SubspaceRotationAdjust: set factor to 5.65
ElecMinimize: Iter:  64  F: -255.577246215759658  |grad|_K:  4.052e-07  alpha:  1.024e-01  linmin: -5.642e-06  t[s]:     86.95
	FillingsUpdate:  mu: -0.101443952  nElectrons: 54.000000
	SubspaceRotationAdjust: set factor to 4.53
ElecMinimize: Iter:  65  F: -255.577246322549058  |grad|_K:  3.851e-07  alpha:  5.879e-02  linmin:  1.204e-06  t[s]:     88.26
	FillingsUpdate:  mu: -0.101341960  nElectrons: 54.000000
	SubspaceRotationAdjust: set factor to 4.18
ElecMinimize: Iter:  66  F: -255.577246438530523  |grad|_K:  3.139e-07  alpha:  7.074e-02  linmin: -4.700e-06  t[s]:     89.57
	FillingsUpdate:  mu: -0.101362899  nElectrons: 54.000000
	SubspaceRotationAdjust: set factor to 4.87
ElecMinimize: Iter:  67  F: -255.577246568559218  |grad|_K:  3.107e-07  alpha:  1.194e-01  linmin:  8.109e-06  t[s]:     90.87
	FillingsUpdate:  mu: -0.101412998  nElectrons: 54.000000
	SubspaceRotationAdjust: set factor to 5.39
ElecMinimize: Iter:  68  F: -255.577246706398796  |grad|_K:  3.511e-07  alpha:  1.297e-01  linmin:  3.179e-05  t[s]:     92.18
	FillingsUpdate:  mu: -0.101282491  nElectrons: 54.000000
	SubspaceRotationAdjust: set factor to 4.92
ElecMinimize: Iter:  69  F: -255.577246820250451  |grad|_K:  3.939e-07  alpha:  8.355e-02  linmin: -7.644e-07  t[s]:     93.49
	FillingsUpdate:  mu: -0.101402974  nElectrons: 54.000000
	SubspaceRotationAdjust: set factor to 4.22
ElecMinimize: Iter:  70  F: -255.577246933297346  |grad|_K:  3.452e-07  alpha:  6.579e-02  linmin:  2.414e-06  t[s]:     94.79
	FillingsUpdate:  mu: -0.101351468  nElectrons: 54.000000

Dumping 'X.fillings' ... done
Dumping 'X.wfns' ... done
Dumping 'X.force' ... done
Dumping 'X.eigenvals' ... done
	SubspaceRotationAdjust: set factor to 4.57
ElecMinimize: Iter:  71  F: -255.577247068411054  |grad|_K:  3.221e-07  alpha:  1.028e-01  linmin:  2.284e-06  t[s]:     96.24
	FillingsUpdate:  mu: -0.101318867  nElectrons: 54.000000
	SubspaceRotationAdjust: set factor to 5.18
ElecMinimize: Iter:  72  F: -255.577247209391402  |grad|_K:  3.470e-07  alpha:  1.230e-01  linmin: -4.483e-06  t[s]:     97.55
	FillingsUpdate:  mu: -0.101432792  nElectrons: 54.000000
	SubspaceRotationAdjust: set factor to 5.14
ElecMinimize: Iter:  73  F: -255.577247345311292  |grad|_K:  4.113e-07  alpha:  1.019e-01  linmin: -3.723e-06  t[s]:     98.85
	FillingsUpdate:  mu: -0.101291002  nElectrons: 54.000000
	SubspaceRotationAdjust: set factor to 4.46
ElecMinimize: Iter:  74  F: -255.577247475812214  |grad|_K:  4.025e-07  alpha:  6.982e-02  linmin: -2.008e-07  t[s]:    100.21
	FillingsUpdate:  mu: -0.101380870  nElectrons: 54.000000
	SubspaceRotationAdjust: set factor to 4.37
ElecMinimize: Iter:  75  F: -255.577247643984350  |grad|_K:  3.718e-07  alpha:  9.372e-02  linmin: -3.833e-06  t[s]:    101.52
	FillingsUpdate:  mu: -0.101358887  nElectrons: 54.000000
	SubspaceRotationAdjust: set factor to 4.93
ElecMinimize: Iter:  76  F: -255.577247823758114  |grad|_K:  3.628e-07  alpha:  1.174e-01  linmin:  3.943e-06  t[s]:    102.83
	FillingsUpdate:  mu: -0.101305652  nElectrons: 54.000000
	SubspaceRotationAdjust: set factor to 5.61
ElecMinimize: Iter:  77  F: -255.577247995309733  |grad|_K:  3.797e-07  alpha:  1.181e-01  linmin:  3.316e-05  t[s]:    104.13
	FillingsUpdate:  mu: -0.101412329  nElectrons: 54.000000
	SubspaceRotationAdjust: set factor to 5.48
ElecMinimize: Iter:  78  F: -255.577248140422313  |grad|_K:  4.255e-07  alpha:  9.133e-02  linmin:  2.748e-06  t[s]:    105.44
	FillingsUpdate:  mu: -0.101265482  nElectrons: 54.000000

Dumping 'X.fillings' ... done
Dumping 'X.wfns' ... done
Dumping 'X.force' ... done
Dumping 'X.eigenvals' ... done
	SubspaceRotationAdjust: set factor to 4.68
ElecMinimize: Iter:  79  F: -255.577248266929161  |grad|_K:  4.098e-07  alpha:  6.314e-02  linmin:  4.382e-07  t[s]:    106.92
	FillingsUpdate:  mu: -0.101348112  nElectrons: 54.000000
	SubspaceRotationAdjust: set factor to 4.74
ElecMinimize: Iter:  80  F: -255.577248425336933  |grad|_K:  3.765e-07  alpha:  8.539e-02  linmin:  3.097e-06  t[s]:    108.23
	FillingsUpdate:  mu: -0.101342995  nElectrons: 54.000000
	SubspaceRotationAdjust: set factor to 5.67
ElecMinimize: Iter:  81  F: -255.577248594241041  |grad|_K:  3.689e-07  alpha:  1.079e-01  linmin: -4.814e-06  t[s]:    109.53
	FillingsUpdate:  mu: -0.101273162  nElectrons: 54.000000
	SubspaceRotationAdjust: set factor to 6.43
ElecMinimize: Iter:  82  F: -255.577248746718084  |grad|_K:  3.876e-07  alpha:  1.012e-01  linmin: -1.541e-05  t[s]:    110.84
	FillingsUpdate:  mu: -0.101402239  nElectrons: 54.000000
	SubspaceRotationAdjust: set factor to 5.83
ElecMinimize: Iter:  83  F: -255.577248855641528  |grad|_K:  4.045e-07  alpha:  6.549e-02  linmin: -8.125e-08  t[s]:    112.14
	FillingsUpdate:  mu: -0.101278080  nElectrons: 54.000000
	SubspaceRotationAdjust: set factor to 4.82
ElecMinimize: Iter:  84  F: -255.577248958886940  |grad|_K:  3.499e-07  alpha:  5.705e-02  linmin:  2.023e-07  t[s]:    113.45
	FillingsUpdate:  mu: -0.101332439  nElectrons: 54.000000
	SubspaceRotationAdjust: set factor to 4.86
ElecMinimize: Iter:  85  F: -255.577249083104419  |grad|_K:  3.349e-07  alpha:  9.158e-02  linmin: -2.919e-06  t[s]:    114.76
	FillingsUpdate:  mu: -0.101306302  nElectrons: 54.000000
	SubspaceRotationAdjust: set factor to 5.82
ElecMinimize: Iter:  86  F: -255.577249223005168  |grad|_K:  3.455e-07  alpha:  1.127e-01  linmin:  7.008e-06  t[s]:    116.06
	FillingsUpdate:  mu: -0.101287217  nElectrons: 54.000000

Dumping 'X.fillings' ... done
Dumping 'X.wfns' ... done
Dumping 'X.force' ... done
Dumping 'X.eigenvals' ... done
	SubspaceRotationAdjust: set factor to 7.08
ElecMinimize: Iter:  87  F: -255.577249367311026  |grad|_K:  3.551e-07  alpha:  1.096e-01  linmin:  1.519e-05  t[s]:    117.50
	FillingsUpdate:  mu: -0.101355422  nElectrons: 54.000000
	SubspaceRotationAdjust: set factor to 7.34
ElecMinimize: Iter:  88  F: -255.577249490715246  |grad|_K:  3.671e-07  alpha:  8.880e-02  linmin:  1.268e-06  t[s]:    118.81
	FillingsUpdate:  mu: -0.101232539  nElectrons: 54.000000
	SubspaceRotationAdjust: set factor to 6.15
ElecMinimize: Iter:  89  F: -255.577249573336076  |grad|_K:  4.009e-07  alpha:  5.558e-02  linmin: -2.489e-08  t[s]:    120.13
	FillingsUpdate:  mu: -0.101343882  nElectrons: 54.000000
	SubspaceRotationAdjust: set factor to 5.39
ElecMinimize: Iter:  90  F: -255.577249664276422  |grad|_K:  3.411e-07  alpha:  5.119e-02  linmin:  3.694e-07  t[s]:    121.46
ElecMinimize: Converged (|Delta F|<1.000000e-07 for 2 iters).
Setting wave functions to eigenvectors of Hamiltonian

# Ionic positions in lattice coordinates:
ion Na   0.000000000000000   0.000000000000000   0.347830000000000 1
ion Na   0.500000000000000   0.500000000000000   0.408700000000000 1
ion Na   0.000000000000000   0.000000000000000   0.469570000000000 1
ion Na   0.500000000000000   0.500000000000000   0.530430000000000 1
ion Na   0.000000000000000   0.000000000000000   0.591300000000000 1
ion Na   0.500000000000000   0.500000000000000   0.652170000000000 1

# Forces in Lattice coordinates:
force Na  -0.000000000000000  -0.000000000000000  -0.027555148996407 1
force Na   0.000000000000000  -0.000000000000000   0.008726776690703 1
force Na  -0.000000000000000   0.000000000000000  -0.000739597569907 1
force Na  -0.000000000000000   0.000000000000000   0.000739597569907 1
force Na   0.000000000000000   0.000000000000000  -0.008726776690703 1
force Na   0.000000000000000  -0.000000000000000   0.027555148995952 1

# Energy components:
   Eewald =    -1248.3434158212576222
       EH =    -1043.9143497629531794
     Eloc =     2021.7243029106275571
      Enl =      -77.5533763308982316
   Epulay =        0.0000124744331046
      Exc =      -37.5467241258212212
       KE =      130.0809935051678963
-------------------------------------
     Etot =     -255.5525571507014888
       TS =        0.0246925135749463
-------------------------------------
        F =     -255.5772496642764224

IonicMinimize: Iter:   0  F: -255.577249664276422  |grad|_K:  1.478e-04  t[s]:    121.67
IonicMinimize: None of the convergence criteria satisfied after 0 iterations.

#--- Lowdin population analysis ---
# oxidation-state Na +0.075 +0.050 +0.050 +0.050 +0.050 +0.075


Dumping 'X.fillings' ... done
Dumping 'X.wfns' ... done
Dumping 'X.ionpos' ... done
Dumping 'X.lattice' ... done
Dumping 'X.n' ... done
Dumping 'X.eigenvals' ... done
Dumping 'X.eigStats' ... 
	eMin: -2.063264 at state 0 ( [ +0.000000 +0.000000 +0.000000 ] spin 0 )
	HOMO: -0.101339 at state 10 ( [ +0.090909 +0.454545 +0.000000 ] spin 0 )
	mu  : -0.101344
	LUMO: -0.100457 at state 8 ( [ +0.090909 +0.272727 +0.000000 ] spin 0 )
	eMax: -0.020023 at state 15 ( [ +0.272727 +0.272727 +0.000000 ] spin 0 )
	HOMO-LUMO gap: +0.000882
	Optical gap  : +0.004997 at state 10 ( [ +0.090909 +0.454545 +0.000000 ] spin 0 )
Dumping 'X.dos' ... done.
End date and time: Wed Nov  8 23:19:13 2023  (Duration: 0-0:02:02.10)
Done!

*************** JDFTx 1.7.0  ***************

Start date and time: Wed Nov  8 23:19:15 2023
Executable jdftx with command-line: -m -i X.in -o X.out
Running on hosts (process indices):  ac0015 (0-20)
Divided in process groups (process indices):  0 (0)  1 (1)  2 (2)  3 (3)  4 (4)  5 (5)  6 (6)  7 (7)  8 (8)  9 (9)  10 (10)  11 (11)  12 (12)  13 (13)  14 (14)  15 (15)  16 (16)  17 (17)  18 (18)  19 (19)  20 (20)
Resource initialization completed at t[s]:      0.03
Run totals: 21 processes, 21 threads, 0 GPUs


Input parsed successfully to the following command list (including defaults):

basis kpoint-dependent
cache-projectors no
coords-type Lattice
core-overlap-check vector
coulomb-interaction Slab 001
coulomb-truncation-embed 0 0 0.5
davidson-band-ratio 1.1
density-of-states Etol 1.000000e-06 Esigma 0.000000e+00 \
		Complete \
	Total \
		Occupied \
	Total
dump End State IonicPositions Lattice ElecDensity CoreDensity EigStats DOS
dump Electronic State Forces
dump Ionic State IonicPositions Forces Lattice DOS
dump-interval Electronic 8
dump-interval Ionic 4
dump-name X.$var
elec-cutoff 30
elec-eigen-algo Davidson
elec-ex-corr gga-PBE
elec-smearing Fermi 0.0095
electronic-minimize  \
	dirUpdateScheme      FletcherReeves \
	linminMethod         DirUpdateRecommended \
	nIterations          2000 \
	history              15 \
	knormThreshold       0 \
	energyDiffThreshold  1e-07 \
	nEnergyDiff          2 \
	alphaTstart          1 \
	alphaTmin            1e-10 \
	updateTestStepSize   yes \
	alphaTreduceFactor   0.1 \
	alphaTincreaseFactor 3 \
	nAlphaAdjustMax      3 \
	wolfeEnergy          0.0001 \
	wolfeGradient        0.9 \
	fdTest               no
exchange-regularization WignerSeitzTruncated
fluid None
fluid-ex-corr (null) lda-PZ
fluid-gummel-loop 10 1.000000e-05
fluid-minimize  \
	dirUpdateScheme      PolakRibiere \
	linminMethod         DirUpdateRecommended \
	nIterations          100 \
	history              15 \
	knormThreshold       0 \
	energyDiffThreshold  0 \
	nEnergyDiff          2 \
	alphaTstart          1 \
	alphaTmin            1e-10 \
	updateTestStepSize   yes \
	alphaTreduceFactor   0.1 \
	alphaTincreaseFactor 3 \
	nAlphaAdjustMax      3 \
	wolfeEnergy          0.0001 \
	wolfeGradient        0.9 \
	fdTest               no
fluid-solvent H2O 55.338 ScalarEOS \
	epsBulk 78.4 \
	pMol 0.92466 \
	epsInf 1.77 \
	Pvap 1.06736e-10 \
	sigmaBulk 4.62e-05 \
	Rvdw 2.61727 \
	Res 1.42 \
	tauNuc 343133 \
	poleEl 15 7 1
forces-output-coords Positions
ion Na   0.000000000000000   0.000000000000000   0.347830000000000 1
ion Na   0.500000000000000   0.500000000000000   0.408700000000000 1
ion Na   0.000000000000000   0.000000000000000   0.469570000000000 1
ion Na   0.500000000000000   0.500000000000000   0.530430000000000 1
ion Na   0.000000000000000   0.000000000000000   0.591300000000000 1
ion Na   0.500000000000000   0.500000000000000   0.652170000000000 1
ion-species SG15/$ID_ONCV_PBE.upf
ion-width 0
ionic-minimize  \
	dirUpdateScheme      L-BFGS \
	linminMethod         DirUpdateRecommended \
	nIterations          0 \
	history              15 \
	knormThreshold       0.0001 \
	energyDiffThreshold  1e-06 \
	nEnergyDiff          2 \
	alphaTstart          1 \
	alphaTmin            1e-10 \
	updateTestStepSize   yes \
	alphaTreduceFactor   0.1 \
	alphaTincreaseFactor 3 \
	nAlphaAdjustMax      3 \
	wolfeEnergy          0.0001 \
	wolfeGradient        0.9 \
	fdTest               no
kpoint   0.000000000000   0.000000000000   0.000000000000  1.00000000000000
kpoint-folding 11 11 1 
latt-move-scale 1 1 1
latt-scale 1 1 1 
lattice  \
	   7.936714821600003   -0.000000000000000   -0.000000000000000  \
	   0.000000000000000    7.936714821600003   -0.000000000000000  \
	   0.000000000000000    0.000000000000000   65.195307053999997 
lattice-minimize  \
	dirUpdateScheme      L-BFGS \
	linminMethod         DirUpdateRecommended \
	nIterations          0 \
	history              15 \
	knormThreshold       0 \
	energyDiffThreshold  1e-06 \
	nEnergyDiff          2 \
	alphaTstart          1 \
	alphaTmin            1e-10 \
	updateTestStepSize   yes \
	alphaTreduceFactor   0.1 \
	alphaTincreaseFactor 3 \
	nAlphaAdjustMax      3 \
	wolfeEnergy          0.0001 \
	wolfeGradient        0.9 \
	fdTest               no
lcao-params -1 1e-06 0.0095
pcm-variant GLSSA13
spintype no-spin
subspace-rotation-factor 1 yes
symmetries automatic
symmetry-threshold 0.0001
wavefunction read X.wfns 30 20.000000



---------- Setting up symmetries ----------

Found 16 point-group symmetries of the bravais lattice
Found 16 space-group symmetries with basis
Applied RMS atom displacement 0 bohrs to make symmetries exact.

---------- Initializing the Grid ----------
R = 
[      7.93671            0            0  ]
[            0      7.93671            0  ]
[            0            0      65.1953  ]
unit cell volume = 4106.75
G =
[   0.791661          0          0  ]
[         -0   0.791661          0  ]
[          0         -0  0.0963748  ]
Minimum fftbox size, Smin = [  40  40  324  ]
Chosen fftbox size, S = [  40  40  324  ]

---------- Exchange Correlation functional ----------
Initalized PBE GGA exchange.
Initalized PBE GGA correlation.

---------- Setting up pseudopotentials ----------
Width of ionic core gaussian charges (only for fluid interactions / plotting) set to 0

Reading pseudopotential file '/net/software/testing/software/jdftx/1.7.0-foss-2021b-mkl/share/jdftx/pseudopotentials/SG15/Na_ONCV_PBE.upf':
  'Na' pseudopotential, 'PBE' functional
  Generated using ONCVPSP code by D. R. Hamann
  Author: Martin Schlipf and Francois Gygi  Date: 150915.
  9 valence electrons, 3 orbitals, 4 projectors, 1992 radial grid points, with lMax = 1
  Transforming local potential to a uniform radial grid of dG=0.02 with 1370 points.
  Transforming nonlocal projectors to a uniform radial grid of dG=0.02 with 528 points.
    2S    l: 0   occupation:  2.0   eigenvalue: -2.085640
    2P    l: 1   occupation:  6.0   eigenvalue: -1.053708
    3S    l: 0   occupation:  1.0   eigenvalue: -0.100838
  Transforming atomic orbitals to a uniform radial grid of dG=0.02 with 528 points.
  Core radius for overlap checks: 2.01 bohrs.
  Reading pulay file /net/software/testing/software/jdftx/1.7.0-foss-2021b-mkl/share/jdftx/pseudopotentials/SG15/Na_ONCV_PBE.pulay ... using dE_dnG = -3.261361e-04 computed for Ecut = 30.

Initialized 1 species with 6 total atoms.

Folded 1 k-points by 11x11x1 to 121 k-points.

---------- Setting up k-points, bands, fillings ----------
Reduced to 21 k-points under symmetry. 
Computing the number of bands and number of electrons
Calculating initial fillings.
nElectrons:  54.000000   nBands: 30   nStates: 21

----- Setting up reduced wavefunction bases (one per k-point) -----
average nbasis = 32232.174 , ideal nbasis = 32230.999

----- Initializing Supercell corresponding to k-point mesh -----
Lattice vector linear combinations in supercell:
[  11   0   0  ]
[   0  11   0  ]
[   0   0   1  ]
Supercell lattice vectors:
[  87.3039  0  0  ]
[  0  87.3039  0  ]
[  0  0  65.1953  ]

---------- Setting up coulomb interaction ----------
Setting up double-sized grid for truncated Coulomb potentials:
R = 
[      7.93671            0            0  ]
[            0      7.93671            0  ]
[            0            0      130.391  ]
unit cell volume = 8213.49
G =
[   0.791661          0          0  ]
[         -0   0.791661          0  ]
[          0         -0  0.0481874  ]
Chosen fftbox size, S = [  40  40  648  ]
Integer grid location selected as the embedding center:
   Grid: [  0  0  162  ]
   Lattice: [  0  0  0.5  ]
   Cartesian: [  0  0  32.5977  ]
Constructing Wigner-Seitz cell: 6 faces (6 quadrilaterals, 0 hexagons)
Range-separation parameter for embedded mesh potentials due to point charges: 0.565908 bohrs.
Initialized slab truncation along lattice direction 001

---------- Setting up 2D ewald sum ----------
Optimum gaussian width for ewald sums = 4.734710 bohr.
Real space sums over 225 unit cells with max indices [  7  7  0  ]
Reciprocal space sums over 81 terms with max indices [  4  4  0  ]

---------- Allocating electronic variables ----------
Initializing wave functions:  reading from 'X.wfns'


---- Citations for features of the code used in this run ----

   Software package:
      R. Sundararaman, K. Letchworth-Weaver, K.A. Schwarz, D. Gunceler, Y. Ozhabes and T.A. Arias, 'JDFTx: software for joint density-functional theory', SoftwareX 6, 278 (2017)

   gga-PBE exchange-correlation functional:
      J.P. Perdew, K. Burke and M. Ernzerhof, Phys. Rev. Lett. 77, 3865 (1996)

   Pseudopotentials:
      M Schlipf and F Gygi, Comput. Phys. Commun. 196, 36 (2015)

   Truncated Coulomb potentials:
      R. Sundararaman and T.A. Arias, Phys. Rev. B 87, 165122 (2013)

   Total energy minimization with Auxiliary Hamiltonian:
      C. Freysoldt, S. Boeck, and J. Neugebauer, Phys. Rev. B 79, 241103(R) (2009)

   Linear-tetrahedron sampling for density of states:
      G. Lehmann and M. Taut, Phys. status solidi (b) 54, 469 (1972)

This list may not be complete. Please suggest additional citations or
report any other bugs at https://github.com/shankar1729/jdftx/issues

Initialization completed successfully at t[s]:      0.62


Setting the auxilliary hamiltonian equal to the subspace hamiltonian.

-------- Electronic minimization -----------
	FillingsUpdate:  mu: -0.113912496  nElectrons: 54.000000
ElecMinimize: Iter:   0  F: -255.572962481616543  |grad|_K:  5.427e-05  alpha:  1.000e+00
	FillingsUpdate:  mu: -0.097530669  nElectrons: 54.000000
	SubspaceRotationAdjust: set factor to 0.56
ElecMinimize: Iter:   1  F: -255.585546728647813  |grad|_K:  1.302e-05  alpha:  2.098e-01  linmin: -8.307e-05  t[s]:      6.66
	FillingsUpdate:  mu: -0.120571518  nElectrons: 54.000000
	SubspaceRotationAdjust: set factor to 0.356
ElecMinimize: Iter:   2  F: -255.586905864793863  |grad|_K:  1.308e-05  alpha:  4.129e-01  linmin:  2.005e-04  t[s]:      9.37
	FillingsUpdate:  mu: -0.108232512  nElectrons: 54.000000
	SubspaceRotationAdjust: set factor to 0.532
ElecMinimize: Iter:   3  F: -255.588196464130192  |grad|_K:  5.587e-06  alpha:  4.092e-01  linmin:  1.229e-04  t[s]:     12.07
	FillingsUpdate:  mu: -0.102641584  nElectrons: 54.000000
	SubspaceRotationAdjust: set factor to 0.488
ElecMinimize: Iter:   4  F: -255.588324950872703  |grad|_K:  2.112e-06  alpha:  2.165e-01  linmin: -1.465e-05  t[s]:     14.74
	FillingsUpdate:  mu: -0.100246052  nElectrons: 54.000000
	SubspaceRotationAdjust: set factor to 0.394
ElecMinimize: Iter:   5  F: -255.588352626161623  |grad|_K:  1.619e-06  alpha:  3.049e-01  linmin: -7.615e-06  t[s]:     17.40
	FillingsUpdate:  mu: -0.100167866  nElectrons: 54.000000
	SubspaceRotationAdjust: set factor to 0.578
ElecMinimize: Iter:   6  F: -255.588375310366729  |grad|_K:  1.350e-06  alpha:  4.256e-01  linmin: -3.472e-06  t[s]:     20.05
	FillingsUpdate:  mu: -0.100625470  nElectrons: 54.000000

Dumping 'X.fillings' ... done
Dumping 'X.wfns' ... done
Dumping 'X.force' ... done
Dumping 'X.eigenvals' ... done
	SubspaceRotationAdjust: set factor to 0.67
ElecMinimize: Iter:   7  F: -255.588388678099420  |grad|_K:  9.629e-07  alpha:  3.607e-01  linmin: -6.292e-07  t[s]:     22.86
	FillingsUpdate:  mu: -0.100637298  nElectrons: 54.000000
	SubspaceRotationAdjust: set factor to 0.913
ElecMinimize: Iter:   8  F: -255.588395375656575  |grad|_K:  7.220e-07  alpha:  3.555e-01  linmin: -1.481e-06  t[s]:     25.53
	FillingsUpdate:  mu: -0.100857366  nElectrons: 54.000000
	SubspaceRotationAdjust: set factor to 1.22
ElecMinimize: Iter:   9  F: -255.588398970784311  |grad|_K:  5.356e-07  alpha:  3.392e-01  linmin: -1.020e-06  t[s]:     28.19
	FillingsUpdate:  mu: -0.101380977  nElectrons: 54.000000
	SubspaceRotationAdjust: set factor to 1.31
ElecMinimize: Iter:  10  F: -255.588400643172804  |grad|_K:  3.580e-07  alpha:  2.869e-01  linmin: -4.677e-07  t[s]:     30.81
	FillingsUpdate:  mu: -0.101327838  nElectrons: 54.000000
	SubspaceRotationAdjust: set factor to 1.4
ElecMinimize: Iter:  11  F: -255.588401308595280  |grad|_K:  2.600e-07  alpha:  2.555e-01  linmin: -7.093e-07  t[s]:     33.44
	FillingsUpdate:  mu: -0.101457838  nElectrons: 54.000000
	SubspaceRotationAdjust: set factor to 1.55
ElecMinimize: Iter:  12  F: -255.588401703111515  |grad|_K:  2.358e-07  alpha:  2.872e-01  linmin:  3.646e-07  t[s]:     36.08
	FillingsUpdate:  mu: -0.101152674  nElectrons: 54.000000
	SubspaceRotationAdjust: set factor to 1.38
ElecMinimize: Iter:  13  F: -255.588401988979285  |grad|_K:  2.071e-07  alpha:  2.530e-01  linmin: -5.395e-07  t[s]:     38.71
	FillingsUpdate:  mu: -0.101209203  nElectrons: 54.000000
	SubspaceRotationAdjust: set factor to 1.2
ElecMinimize: Iter:  14  F: -255.588402218177691  |grad|_K:  1.953e-07  alpha:  2.629e-01  linmin: -4.366e-07  t[s]:     41.34
	FillingsUpdate:  mu: -0.101033608  nElectrons: 54.000000

Dumping 'X.fillings' ... done
Dumping 'X.wfns' ... done
Dumping 'X.force' ... done
Dumping 'X.eigenvals' ... done
	SubspaceRotationAdjust: set factor to 1.25
ElecMinimize: Iter:  15  F: -255.588402482301944  |grad|_K:  2.038e-07  alpha:  3.406e-01  linmin: -1.041e-07  t[s]:     44.19
	FillingsUpdate:  mu: -0.101213350  nElectrons: 54.000000
	SubspaceRotationAdjust: set factor to 1.35
ElecMinimize: Iter:  16  F: -255.588402831379028  |grad|_K:  2.241e-07  alpha:  4.138e-01  linmin:  1.488e-06  t[s]:     46.81
	FillingsUpdate:  mu: -0.101307777  nElectrons: 54.000000
	SubspaceRotationAdjust: set factor to 1.42
ElecMinimize: Iter:  17  F: -255.588403293117551  |grad|_K:  2.491e-07  alpha:  4.527e-01  linmin: -1.333e-06  t[s]:     49.44
	FillingsUpdate:  mu: -0.101436451  nElectrons: 54.000000
	SubspaceRotationAdjust: set factor to 1.6
ElecMinimize: Iter:  18  F: -255.588403828920264  |grad|_K:  2.573e-07  alpha:  4.249e-01  linmin: -4.376e-06  t[s]:     52.08
	FillingsUpdate:  mu: -0.101367522  nElectrons: 54.000000
	SubspaceRotationAdjust: set factor to 1.84
ElecMinimize: Iter:  19  F: -255.588404370591235  |grad|_K:  2.537e-07  alpha:  4.019e-01  linmin: -1.193e-05  t[s]:     54.72
	FillingsUpdate:  mu: -0.101388052  nElectrons: 54.000000
	SubspaceRotationAdjust: set factor to 1.91
ElecMinimize: Iter:  20  F: -255.588404848369777  |grad|_K:  2.526e-07  alpha:  3.643e-01  linmin: -1.175e-05  t[s]:     57.36
	FillingsUpdate:  mu: -0.101114867  nElectrons: 54.000000
	SubspaceRotationAdjust: set factor to 1.69
ElecMinimize: Iter:  21  F: -255.588405173701631  |grad|_K:  2.946e-07  alpha:  2.497e-01  linmin: -4.687e-06  t[s]:     60.01
	FillingsUpdate:  mu: -0.101368624  nElectrons: 54.000000
	SubspaceRotationAdjust: set factor to 1.36
ElecMinimize: Iter:  22  F: -255.588405459500336  |grad|_K:  2.377e-07  alpha:  1.612e-01  linmin: -6.070e-06  t[s]:     62.65
	FillingsUpdate:  mu: -0.101348185  nElectrons: 54.000000

Dumping 'X.fillings' ... done
Dumping 'X.wfns' ... done
Dumping 'X.force' ... done
Dumping 'X.eigenvals' ... done
	SubspaceRotationAdjust: set factor to 1.54
ElecMinimize: Iter:  23  F: -255.588405858205306  |grad|_K:  2.341e-07  alpha:  3.506e-01  linmin:  5.178e-05  t[s]:     65.54
	FillingsUpdate:  mu: -0.101278806  nElectrons: 54.000000
	SubspaceRotationAdjust: set factor to 1.68
ElecMinimize: Iter:  24  F: -255.588406289562727  |grad|_K:  2.800e-07  alpha:  3.972e-01  linmin:  8.461e-05  t[s]:     68.18
	FillingsUpdate:  mu: -0.101538588  nElectrons: 54.000000
	SubspaceRotationAdjust: set factor to 1.53
ElecMinimize: Iter:  25  F: -255.588406627589961  |grad|_K:  2.889e-07  alpha:  2.110e-01  linmin: -6.800e-05  t[s]:     70.84
	FillingsUpdate:  mu: -0.101403706  nElectrons: 54.000000
	SubspaceRotationAdjust: set factor to 1.67
ElecMinimize: Iter:  26  F: -255.588407005084548  |grad|_K:  2.438e-07  alpha:  2.192e-01  linmin:  4.519e-05  t[s]:     73.49
	FillingsUpdate:  mu: -0.101379688  nElectrons: 54.000000
	SubspaceRotationAdjust: set factor to 2.1
ElecMinimize: Iter:  27  F: -255.588407316803114  |grad|_K:  2.305e-07  alpha:  2.621e-01  linmin:  1.741e-05  t[s]:     76.20
	FillingsUpdate:  mu: -0.101547684  nElectrons: 54.000000
	SubspaceRotationAdjust: set factor to 2.12
ElecMinimize: Iter:  28  F: -255.588407518182436  |grad|_K:  2.231e-07  alpha:  1.878e-01  linmin: -1.782e-06  t[s]:     78.86
	FillingsUpdate:  mu: -0.101418665  nElectrons: 54.000000
	SubspaceRotationAdjust: set factor to 1.88
ElecMinimize: Iter:  29  F: -255.588407669240354  |grad|_K:  1.777e-07  alpha:  1.494e-01  linmin: -6.509e-06  t[s]:     81.52
	FillingsUpdate:  mu: -0.101466631  nElectrons: 54.000000
	SubspaceRotationAdjust: set factor to 1.86
ElecMinimize: Iter:  30  F: -255.588407803076393  |grad|_K:  1.509e-07  alpha:  2.079e-01  linmin: -2.138e-05  t[s]:     84.18
	FillingsUpdate:  mu: -0.101413522  nElectrons: 54.000000

Dumping 'X.fillings' ... done
Dumping 'X.wfns' ... done
Dumping 'X.force' ... done
Dumping 'X.eigenvals' ... done
	SubspaceRotationAdjust: set factor to 2.09
ElecMinimize: Iter:  31  F: -255.588407926709891  |grad|_K:  1.481e-07  alpha:  2.652e-01  linmin: -9.776e-06  t[s]:     87.08
	FillingsUpdate:  mu: -0.101351463  nElectrons: 54.000000
	SubspaceRotationAdjust: set factor to 2.37
ElecMinimize: Iter:  32  F: -255.588408063168686  |grad|_K:  1.631e-07  alpha:  3.050e-01  linmin: -2.619e-06  t[s]:     89.73
	FillingsUpdate:  mu: -0.101415535  nElectrons: 54.000000
	SubspaceRotationAdjust: set factor to 2.39
ElecMinimize: Iter:  33  F: -255.588408209556263  |grad|_K:  1.810e-07  alpha:  2.708e-01  linmin:  3.512e-06  t[s]:     92.38
	FillingsUpdate:  mu: -0.101295419  nElectrons: 54.000000
	SubspaceRotationAdjust: set factor to 1.99
ElecMinimize: Iter:  34  F: -255.588408317348780  |grad|_K:  1.884e-07  alpha:  1.619e-01  linmin:  1.218e-06  t[s]:     95.03
	FillingsUpdate:  mu: -0.101437124  nElectrons: 54.000000
	SubspaceRotationAdjust: set factor to 1.75
ElecMinimize: Iter:  35  F: -255.588408421311556  |grad|_K:  1.493e-07  alpha:  1.442e-01  linmin:  9.123e-08  t[s]:     97.70
	FillingsUpdate:  mu: -0.101417286  nElectrons: 54.000000
	SubspaceRotationAdjust: set factor to 2.15
ElecMinimize: Iter:  36  F: -255.588408524683587  |grad|_K:  1.275e-07  alpha:  2.283e-01  linmin: -9.636e-08  t[s]:    100.35
	FillingsUpdate:  mu: -0.101338034  nElectrons: 54.000000
	SubspaceRotationAdjust: set factor to 2.36
ElecMinimize: Iter:  37  F: -255.588408604500927  |grad|_K:  1.276e-07  alpha:  2.417e-01  linmin: -4.711e-06  t[s]:    103.00
	FillingsUpdate:  mu: -0.101399257  nElectrons: 54.000000
	SubspaceRotationAdjust: set factor to 1.97
ElecMinimize: Iter:  38  F: -255.588408655388321  |grad|_K:  1.265e-07  alpha:  1.540e-01  linmin: -2.609e-07  t[s]:    105.64
ElecMinimize: Converged (|Delta F|<1.000000e-07 for 2 iters).
Setting wave functions to eigenvectors of Hamiltonian

# Ionic positions in lattice coordinates:
ion Na   0.000000000000000   0.000000000000000   0.347830000000000 1
ion Na   0.500000000000000   0.500000000000000   0.408700000000000 1
ion Na   0.000000000000000   0.000000000000000   0.469570000000000 1
ion Na   0.500000000000000   0.500000000000000   0.530430000000000 1
ion Na   0.000000000000000   0.000000000000000   0.591300000000000 1
ion Na   0.500000000000000   0.500000000000000   0.652170000000000 1

# Forces in Lattice coordinates:
force Na  -0.000000000000000  -0.000000000000000  -0.010621792042471 1
force Na  -0.000000000000000   0.000000000000000  -0.002169751251790 1
force Na   0.000000000000000  -0.000000000000000  -0.002388039677283 1
force Na   0.000000000000000  -0.000000000000000   0.002388039677283 1
force Na   0.000000000000000  -0.000000000000000   0.002169751251790 1
force Na  -0.000000000000000  -0.000000000000000   0.010621792042470 1

# Energy components:
   Eewald =    -1248.3434158212576222
       EH =    -1043.8619097626246912
     Eloc =     2021.6435561330999917
      Enl =      -77.5784292845436738
   Epulay =        0.0000005596737039
      Exc =      -37.5538546608711528
       KE =      130.1303892169276821
-------------------------------------
     Etot =     -255.5636636195957578
       TS =        0.0247450357925588
-------------------------------------
        F =     -255.5884086553883208

IonicMinimize: Iter:   0  F: -255.588408655388321  |grad|_K:  5.676e-05  t[s]:    106.01
IonicMinimize: Converged (|grad|_K<1.000000e-04).

#--- Lowdin population analysis ---
# oxidation-state Na +0.075 +0.050 +0.050 +0.050 +0.050 +0.075


Dumping 'X.fillings' ... done
Dumping 'X.wfns' ... done
Dumping 'X.ionpos' ... done
Dumping 'X.lattice' ... done
Dumping 'X.n' ... done
Dumping 'X.eigenvals' ... done
Dumping 'X.eigStats' ... 
	eMin: -2.062397 at state 3 ( [ +0.000000 +0.272727 +0.000000 ] spin 0 )
	HOMO: -0.103028 at state 3 ( [ +0.000000 +0.272727 +0.000000 ] spin 0 )
	mu  : -0.101399
	LUMO: -0.101391 at state 10 ( [ +0.090909 +0.454545 +0.000000 ] spin 0 )
	eMax: -0.020733 at state 15 ( [ +0.272727 +0.272727 +0.000000 ] spin 0 )
	HOMO-LUMO gap: +0.001637
	Optical gap  : +0.005012 at state 5 ( [ +0.000000 +0.454545 +0.000000 ] spin 0 )
Dumping 'X.dos' ... done.
End date and time: Wed Nov  8 23:21:02 2023  (Duration: 0-0:01:46.29)
Done!

*************** JDFTx 1.7.0  ***************

Start date and time: Wed Nov  8 23:21:04 2023
Executable jdftx with command-line: -m -i X.in -o X.out
Running on hosts (process indices):  ac0015 (0-20)
Divided in process groups (process indices):  0 (0)  1 (1)  2 (2)  3 (3)  4 (4)  5 (5)  6 (6)  7 (7)  8 (8)  9 (9)  10 (10)  11 (11)  12 (12)  13 (13)  14 (14)  15 (15)  16 (16)  17 (17)  18 (18)  19 (19)  20 (20)
Resource initialization completed at t[s]:      0.01
Run totals: 21 processes, 21 threads, 0 GPUs


Input parsed successfully to the following command list (including defaults):

basis kpoint-dependent
cache-projectors no
coords-type Lattice
core-overlap-check vector
coulomb-interaction Slab 001
coulomb-truncation-embed 0 0 0.5
davidson-band-ratio 1.1
density-of-states Etol 1.000000e-06 Esigma 0.000000e+00 \
		Complete \
	Total \
		Occupied \
	Total
dump End State IonicPositions Lattice ElecDensity CoreDensity EigStats DOS
dump Electronic State Forces
dump Ionic State IonicPositions Forces Lattice DOS
dump-interval Electronic 8
dump-interval Ionic 4
dump-name X.$var
elec-cutoff 40
elec-eigen-algo Davidson
elec-ex-corr gga-PBE
elec-smearing Fermi 0.0095
electronic-minimize  \
	dirUpdateScheme      FletcherReeves \
	linminMethod         DirUpdateRecommended \
	nIterations          2000 \
	history              15 \
	knormThreshold       0 \
	energyDiffThreshold  1e-07 \
	nEnergyDiff          2 \
	alphaTstart          1 \
	alphaTmin            1e-10 \
	updateTestStepSize   yes \
	alphaTreduceFactor   0.1 \
	alphaTincreaseFactor 3 \
	nAlphaAdjustMax      3 \
	wolfeEnergy          0.0001 \
	wolfeGradient        0.9 \
	fdTest               no
exchange-regularization WignerSeitzTruncated
fluid None
fluid-ex-corr (null) lda-PZ
fluid-gummel-loop 10 1.000000e-05
fluid-minimize  \
	dirUpdateScheme      PolakRibiere \
	linminMethod         DirUpdateRecommended \
	nIterations          100 \
	history              15 \
	knormThreshold       0 \
	energyDiffThreshold  0 \
	nEnergyDiff          2 \
	alphaTstart          1 \
	alphaTmin            1e-10 \
	updateTestStepSize   yes \
	alphaTreduceFactor   0.1 \
	alphaTincreaseFactor 3 \
	nAlphaAdjustMax      3 \
	wolfeEnergy          0.0001 \
	wolfeGradient        0.9 \
	fdTest               no
fluid-solvent H2O 55.338 ScalarEOS \
[...]
	SubspaceRotationAdjust: set factor to 0.345
ElecMinimize: Iter:  17  F: -255.581203199757596  |grad|_K:  2.909e-08  alpha:  4.995e-01  linmin: -1.863e-05  t[s]:   1001.73
	FillingsUpdate:  mu: -0.098700299  nElectrons: 54.000000
	SubspaceRotationAdjust: set factor to 0.349
ElecMinimize: Iter:  18  F: -255.581203218484916  |grad|_K:  2.436e-08  alpha:  5.065e-01  linmin: -2.913e-05  t[s]:   1008.21
	FillingsUpdate:  mu: -0.098703370  nElectrons: 54.000000
	SubspaceRotationAdjust: set factor to 0.352
ElecMinimize: Iter:  19  F: -255.581203231647834  |grad|_K:  2.098e-08  alpha:  5.065e-01  linmin:  7.460e-05  t[s]:   1014.57
	FillingsUpdate:  mu: -0.098700957  nElectrons: 54.000000
	SubspaceRotationAdjust: set factor to 0.359
ElecMinimize: Iter:  20  F: -255.581203241296947  |grad|_K:  1.818e-08  alpha:  5.048e-01  linmin:  6.537e-05  t[s]:   1020.98
	FillingsUpdate:  mu: -0.098696072  nElectrons: 54.000000
	SubspaceRotationAdjust: set factor to 0.363
ElecMinimize: Iter:  21  F: -255.581203248693981  |grad|_K:  1.557e-08  alpha:  5.142e-01  linmin:  3.976e-04  t[s]:   1027.42
ElecMinimize: Converged (|Delta F|<1.000000e-08 for 2 iters).
Setting wave functions to eigenvectors of Hamiltonian
Converging empty states (this may take a while): |deigs|: 2.631e-08

# Ionic positions in lattice coordinates:
ion Na   0.000000000000000  -0.000000000000000   0.346712478159236 1
ion Na   0.500000000000000   0.500000000000000   0.408535438747844 1
ion Na   0.000000000000000   0.000000000000000   0.469393570096685 1
ion Na   0.500000000000000   0.500000000000000   0.530606429903316 1
ion Na   0.000000000000000  -0.000000000000000   0.591464561252157 1
ion Na   0.500000000000000   0.500000000000000   0.653287521840764 1

# Forces in Lattice coordinates:
force Na  -0.000000000000000   0.000000000000000  -0.003157683483284 1
force Na   0.000000000000000  -0.000000000000000   0.002474568111448 1
force Na   0.000000000000000  -0.000000000000000  -0.001509884589918 1
force Na   0.000000000000000  -0.000000000000000   0.001509884589804 1
force Na   0.000000000000000   0.000000000000000  -0.002474568110994 1
force Na   0.000000000000000   0.000000000000000   0.003157683483284 1

# Energy components:
   Eewald =    -1254.8017223001772891
       EH =    -1050.2092399600574026
     Eloc =     2034.4477822979738448
      Enl =      -77.5801958066662962
   Epulay =        0.0000000201625827
      Exc =      -37.5523811176435274
       KE =      130.1148885017478563
-------------------------------------
     Etot =     -255.5808683646604607
       TS =        0.0003348840335344
-------------------------------------
        F =     -255.5812032486939813

IonicMinimize: Iter:   6  F: -255.581203248693981  |grad|_K:  2.192e-05  alpha:  1.226e-01  linmin:  3.947e-01  t[s]:   1033.92

#--- Lowdin population analysis ---
# oxidation-state Na +0.036 +0.057 +0.044 +0.044 +0.057 +0.036


-------- Electronic minimization -----------
	FillingsUpdate:  mu: -0.098695644  nElectrons: 54.000000
ElecMinimize: Iter:   0  F: -255.581202392867169  |grad|_K:  2.901e-07  alpha:  1.000e+00
	FillingsUpdate:  mu: -0.098623909  nElectrons: 54.000000
	SubspaceRotationAdjust: set factor to 0.421
ElecMinimize: Iter:   1  F: -255.581203465142579  |grad|_K:  6.412e-08  alpha:  2.915e-01  linmin:  8.863e-05  t[s]:   1045.13
	FillingsUpdate:  mu: -0.098649051  nElectrons: 54.000000
	SubspaceRotationAdjust: set factor to 0.535
ElecMinimize: Iter:   2  F: -255.581203541019846  |grad|_K:  3.439e-08  alpha:  4.223e-01  linmin: -1.703e-05  t[s]:   1051.51
	FillingsUpdate:  mu: -0.098680300  nElectrons: 54.000000
	SubspaceRotationAdjust: set factor to 0.643
ElecMinimize: Iter:   3  F: -255.581203567931567  |grad|_K:  2.110e-08  alpha:  5.190e-01  linmin: -4.692e-05  t[s]:   1057.96
	FillingsUpdate:  mu: -0.098706096  nElectrons: 54.000000
	SubspaceRotationAdjust: set factor to 0.681
ElecMinimize: Iter:   4  F: -255.581203577664724  |grad|_K:  1.447e-08  alpha:  5.005e-01  linmin: -1.167e-04  t[s]:   1064.36
	FillingsUpdate:  mu: -0.098698274  nElectrons: 54.000000
	SubspaceRotationAdjust: set factor to 0.703
ElecMinimize: Iter:   5  F: -255.581203582187186  |grad|_K:  1.191e-08  alpha:  4.903e-01  linmin:  4.747e-05  t[s]:   1070.76
ElecMinimize: Converged (|Delta F|<1.000000e-08 for 2 iters).
Setting wave functions to eigenvectors of Hamiltonian
Converging empty states (this may take a while): |deigs|: 3.023e-09

# Ionic positions in lattice coordinates:
ion Na  -0.000000000000000  -0.000000000000000   0.346666087414791 1
ion Na   0.500000000000000   0.500000000000000   0.408572493007787 1
ion Na  -0.000000000000000   0.000000000000000   0.469395520962462 1
ion Na   0.500000000000000   0.500000000000000   0.530604479037539 1
ion Na   0.000000000000000  -0.000000000000000   0.591427506992213 1
ion Na   0.500000000000000   0.500000000000000   0.653333912585209 1

# Forces in Lattice coordinates:
force Na   0.000000000000000  -0.000000000000000  -0.001802401217186 1
force Na   0.000000000000000   0.000000000000000   0.001812873073505 1
force Na  -0.000000000000000  -0.000000000000000  -0.000477645823972 1
force Na   0.000000000000000  -0.000000000000000   0.000477645823972 1
force Na   0.000000000000000   0.000000000000000  -0.001812873073733 1
force Na   0.000000000000000  -0.000000000000000   0.001802401216731 1

# Energy components:
   Eewald =    -1254.9213466816381697
       EH =    -1050.3292794500951004
     Eloc =     2034.6875249969559718
      Enl =      -77.5801786137027563
   Epulay =        0.0000000201625827
      Exc =      -37.5522922076499555
       KE =      130.1147027923999531
-------------------------------------
     Etot =     -255.5808691435672131
       TS =        0.0003344386199803
-------------------------------------
        F =     -255.5812035821871859


Dumping 'X.fillings' ... done
Dumping 'X.wfns' ... done
Dumping 'X.ionpos' ... done
Dumping 'X.force' ... done
Dumping 'X.lattice' ... done
Dumping 'X.eigenvals' ... done
Dumping 'X.dos' ... done.
IonicMinimize: Iter:   7  F: -255.581203582187186  |grad|_K:  1.330e-05  alpha:  1.000e+00  linmin: -9.700e-01  t[s]:   1077.56

#--- Lowdin population analysis ---
# oxidation-state Na +0.036 +0.057 +0.044 +0.044 +0.057 +0.036


-------- Electronic minimization -----------
	FillingsUpdate:  mu: -0.098802238  nElectrons: 54.000000
ElecMinimize: Iter:   0  F: -255.581196022596288  |grad|_K:  7.326e-07  alpha:  1.000e+00
	FillingsUpdate:  mu: -0.098286730  nElectrons: 54.000000
	SubspaceRotationAdjust: set factor to 0.459
ElecMinimize: Iter:   1  F: -255.581202458802807  |grad|_K:  2.124e-07  alpha:  2.743e-01  linmin: -7.641e-05  t[s]:   1089.12
	FillingsUpdate:  mu: -0.098718985  nElectrons: 54.000000
	SubspaceRotationAdjust: set factor to 0.265
ElecMinimize: Iter:   2  F: -255.581202945933995  |grad|_K:  9.660e-08  alpha:  2.470e-01  linmin: -4.875e-06  t[s]:   1095.69
	FillingsUpdate:  mu: -0.098699300  nElectrons: 54.000000
	SubspaceRotationAdjust: set factor to 0.348
ElecMinimize: Iter:   3  F: -255.581203119171192  |grad|_K:  5.572e-08  alpha:  4.250e-01  linmin:  6.869e-05  t[s]:   1102.27
	FillingsUpdate:  mu: -0.098663319  nElectrons: 54.000000
	SubspaceRotationAdjust: set factor to 0.328
ElecMinimize: Iter:   4  F: -255.581203181122504  |grad|_K:  3.406e-08  alpha:  4.567e-01  linmin:  4.250e-05  t[s]:   1108.78
	FillingsUpdate:  mu: -0.098699988  nElectrons: 54.000000
	SubspaceRotationAdjust: set factor to 0.355
ElecMinimize: Iter:   5  F: -255.581203213130834  |grad|_K:  2.786e-08  alpha:  6.313e-01  linmin: -3.566e-05  t[s]:   1115.33
	FillingsUpdate:  mu: -0.098717282  nElectrons: 54.000000
	SubspaceRotationAdjust: set factor to 0.37
ElecMinimize: Iter:   6  F: -255.581203234242423  |grad|_K:  2.399e-08  alpha:  6.218e-01  linmin: -1.604e-07  t[s]:   1121.86
	FillingsUpdate:  mu: -0.098709964  nElectrons: 54.000000

Dumping 'X.fillings' ... done
Dumping 'X.wfns' ... done
Dumping 'X.ionpos' ... done
Dumping 'X.force' ... done
Dumping 'X.eigenvals' ... done
	SubspaceRotationAdjust: set factor to 0.388
ElecMinimize: Iter:   7  F: -255.581203249049935  |grad|_K:  1.885e-08  alpha:  5.899e-01  linmin:  1.205e-05  t[s]:   1128.86
	FillingsUpdate:  mu: -0.098694523  nElectrons: 54.000000
	SubspaceRotationAdjust: set factor to 0.391
ElecMinimize: Iter:   8  F: -255.581203257309085  |grad|_K:  1.436e-08  alpha:  5.328e-01  linmin: -1.540e-06  t[s]:   1135.37
	FillingsUpdate:  mu: -0.098697180  nElectrons: 54.000000
	SubspaceRotationAdjust: set factor to 0.404
ElecMinimize: Iter:   9  F: -255.581203262402880  |grad|_K:  1.250e-08  alpha:  5.628e-01  linmin:  6.315e-05  t[s]:   1141.92
ElecMinimize: Converged (|Delta F|<1.000000e-08 for 2 iters).
Setting wave functions to eigenvectors of Hamiltonian
Converging empty states (this may take a while): |deigs|: 8.739e-09
IonicMinimize: 	Wolfe criterion not satisfied: alpha: 1  (E-E0)/|gdotd0|: 0.497808  gdotd/gdotd0: -1.13758 (taking cubic step)

-------- Electronic minimization -----------
	FillingsUpdate:  mu: -0.098627764  nElectrons: 54.000000
ElecMinimize: Iter:   0  F: -255.581199516443519  |grad|_K:  5.412e-07  alpha:  1.000e+00
	FillingsUpdate:  mu: -0.098858768  nElectrons: 54.000000
	SubspaceRotationAdjust: set factor to 0.44
ElecMinimize: Iter:   1  F: -255.581203223617450  |grad|_K:  1.190e-07  alpha:  2.897e-01  linmin:  1.885e-05  t[s]:   1159.55
	FillingsUpdate:  mu: -0.098774486  nElectrons: 54.000000
	SubspaceRotationAdjust: set factor to 0.557
ElecMinimize: Iter:   2  F: -255.581203478579226  |grad|_K:  6.184e-08  alpha:  4.123e-01  linmin:  4.078e-06  t[s]:   1166.09
	FillingsUpdate:  mu: -0.098734604  nElectrons: 54.000000
	SubspaceRotationAdjust: set factor to 0.643
ElecMinimize: Iter:   3  F: -255.581203559687793  |grad|_K:  3.654e-08  alpha:  4.851e-01  linmin: -1.836e-05  t[s]:   1176.40
	FillingsUpdate:  mu: -0.098685428  nElectrons: 54.000000
	SubspaceRotationAdjust: set factor to 0.647
ElecMinimize: Iter:   4  F: -255.581203587300820  |grad|_K:  2.428e-08  alpha:  4.721e-01  linmin: -1.103e-04  t[s]:   1183.81
	FillingsUpdate:  mu: -0.098704218  nElectrons: 54.000000
	SubspaceRotationAdjust: set factor to 0.639
ElecMinimize: Iter:   5  F: -255.581203600055858  |grad|_K:  1.978e-08  alpha:  4.934e-01  linmin:  1.016e-05  t[s]:   1191.61
	FillingsUpdate:  mu: -0.098676551  nElectrons: 54.000000
	SubspaceRotationAdjust: set factor to 0.542
ElecMinimize: Iter:   6  F: -255.581203608961715  |grad|_K:  1.612e-08  alpha:  5.212e-01  linmin: -2.075e-05  t[s]:   1198.59
	FillingsUpdate:  mu: -0.098706724  nElectrons: 54.000000

Dumping 'X.fillings' ... done
Dumping 'X.wfns' ... done
Dumping 'X.ionpos' ... done
Dumping 'X.force' ... done
Dumping 'X.eigenvals' ... done
	SubspaceRotationAdjust: set factor to 0.45
ElecMinimize: Iter:   7  F: -255.581203614602686  |grad|_K:  1.207e-08  alpha:  4.954e-01  linmin:  5.602e-06  t[s]:   1205.63
ElecMinimize: Converged (|Delta F|<1.000000e-08 for 2 iters).
Setting wave functions to eigenvectors of Hamiltonian
Converging empty states (this may take a while): |deigs|: 3.227e-09

# Ionic positions in lattice coordinates:
ion Na  -0.000000000000000  -0.000000000000000   0.346647031724093 1
ion Na   0.500000000000000   0.500000000000000   0.408598588791178 1
ion Na  -0.000000000000000   0.000000000000000   0.469401693718025 1
ion Na   0.500000000000000   0.500000000000000   0.530598306281976 1
ion Na  -0.000000000000000  -0.000000000000000   0.591401411208822 1
ion Na   0.500000000000000   0.500000000000000   0.653352968275907 1

# Forces in Lattice coordinates:
force Na   0.000000000000000  -0.000000000000000  -0.002545387213345 1
force Na   0.000000000000000  -0.000000000000000  -0.001046374199310 1
force Na  -0.000000000000000   0.000000000000000  -0.001260222547010 1
force Na   0.000000000000000   0.000000000000000   0.001260222547010 1
force Na   0.000000000000000   0.000000000000000   0.001046374199538 1
force Na   0.000000000000000   0.000000000000000   0.002545387213345 1

# Energy components:
   Eewald =    -1254.9304378404538056
       EH =    -1050.3391475971604905
     Eloc =     2034.7065309291335780
      Enl =      -77.5801791003989933
   Epulay =        0.0000000201625827
      Exc =      -37.5522519984896590
       KE =      130.1146162505442021
-------------------------------------
     Etot =     -255.5808693366626017
       TS =        0.0003342779400885
-------------------------------------
        F =     -255.5812036146026855

IonicMinimize: Iter:   8  F: -255.581203614602686  |grad|_K:  1.548e-05  alpha:  2.450e-01  linmin: -1.348e-01  t[s]:   1211.23

#--- Lowdin population analysis ---
# oxidation-state Na +0.036 +0.057 +0.044 +0.044 +0.057 +0.036


-------- Electronic minimization -----------
	FillingsUpdate:  mu: -0.098421721  nElectrons: 54.000000
ElecMinimize: Iter:   0  F: -255.581196144060101  |grad|_K:  7.109e-07  alpha:  1.000e+00
	FillingsUpdate:  mu: -0.098514544  nElectrons: 54.000000
	SubspaceRotationAdjust: set factor to 0.577
ElecMinimize: Iter:   1  F: -255.581202645820952  |grad|_K:  1.654e-07  alpha:  2.946e-01  linmin:  1.653e-04  t[s]:   1222.80
	FillingsUpdate:  mu: -0.098615555  nElectrons: 54.000000
	SubspaceRotationAdjust: set factor to 0.763
ElecMinimize: Iter:   2  F: -255.581203170428324  |grad|_K:  9.066e-08  alpha:  4.388e-01  linmin: -2.315e-05  t[s]:   1229.43
	FillingsUpdate:  mu: -0.098699015  nElectrons: 54.000000
	SubspaceRotationAdjust: set factor to 0.852
ElecMinimize: Iter:   3  F: -255.581203344598293  |grad|_K:  5.033e-08  alpha:  4.846e-01  linmin: -2.966e-05  t[s]:   1236.02
	FillingsUpdate:  mu: -0.098732704  nElectrons: 54.000000
	SubspaceRotationAdjust: set factor to 0.938
ElecMinimize: Iter:   4  F: -255.581203401518053  |grad|_K:  3.584e-08  alpha:  5.142e-01  linmin:  1.827e-05  t[s]:   1242.64
	FillingsUpdate:  mu: -0.098700542  nElectrons: 54.000000
	SubspaceRotationAdjust: set factor to 0.987
ElecMinimize: Iter:   5  F: -255.581203431946534  |grad|_K:  3.020e-08  alpha:  5.421e-01  linmin: -1.040e-05  t[s]:   1249.41
	FillingsUpdate:  mu: -0.098722748  nElectrons: 54.000000
	SubspaceRotationAdjust: set factor to 0.817
ElecMinimize: Iter:   6  F: -255.581203448430585  |grad|_K:  2.608e-08  alpha:  4.127e-01  linmin: -1.616e-06  t[s]:   1256.04
	FillingsUpdate:  mu: -0.098666971  nElectrons: 54.000000

Dumping 'X.fillings' ... done
Dumping 'X.wfns' ... done
Dumping 'X.ionpos' ... done
Dumping 'X.force' ... done
Dumping 'X.eigenvals' ... done
	SubspaceRotationAdjust: set factor to 0.597
ElecMinimize: Iter:   7  F: -255.581203458145637  |grad|_K:  2.231e-08  alpha:  3.269e-01  linmin:  2.605e-05  t[s]:   1263.02
	FillingsUpdate:  mu: -0.098693823  nElectrons: 54.000000
	SubspaceRotationAdjust: set factor to 0.639
ElecMinimize: Iter:   8  F: -255.581203467636271  |grad|_K:  1.787e-08  alpha:  4.371e-01  linmin: -1.568e-05  t[s]:   1269.73
ElecMinimize: Converged (|Delta F|<1.000000e-08 for 2 iters).
Setting wave functions to eigenvectors of Hamiltonian
Converging empty states (this may take a while): |deigs|: 1.014e-08
IonicMinimize: 	Wolfe criterion not satisfied: alpha: 1  (E-E0)/|gdotd0|: 0.214814  gdotd/gdotd0: -0.767517 (taking cubic step)

-------- Electronic minimization -----------
	FillingsUpdate:  mu: -0.098827133  nElectrons: 54.000000
ElecMinimize: Iter:   0  F: -255.581200278072089  |grad|_K:  4.876e-07  alpha:  1.000e+00
	FillingsUpdate:  mu: -0.098850275  nElectrons: 54.000000
	SubspaceRotationAdjust: set factor to 0.805
ElecMinimize: Iter:   1  F: -255.581203335307691  |grad|_K:  1.159e-07  alpha:  2.939e-01  linmin: -2.327e-04  t[s]:   1287.66
	FillingsUpdate:  mu: -0.098678201  nElectrons: 54.000000
	SubspaceRotationAdjust: set factor to 0.848
ElecMinimize: Iter:   2  F: -255.581203570321804  |grad|_K:  6.429e-08  alpha:  4.001e-01  linmin:  1.683e-05  t[s]:   1294.54
	FillingsUpdate:  mu: -0.098748031  nElectrons: 54.000000
	SubspaceRotationAdjust: set factor to 0.582
ElecMinimize: Iter:   3  F: -255.581203628971735  |grad|_K:  4.432e-08  alpha:  3.251e-01  linmin:  4.970e-06  t[s]:   1301.16
	FillingsUpdate:  mu: -0.098658822  nElectrons: 54.000000
	SubspaceRotationAdjust: set factor to 0.398
ElecMinimize: Iter:   4  F: -255.581203655150546  |grad|_K:  2.629e-08  alpha:  3.049e-01  linmin:  7.123e-05  t[s]:   1307.81
	FillingsUpdate:  mu: -0.098677267  nElectrons: 54.000000
	SubspaceRotationAdjust: set factor to 0.466
ElecMinimize: Iter:   5  F: -255.581203673732318  |grad|_K:  2.118e-08  alpha:  6.123e-01  linmin: -8.208e-05  t[s]:   1314.46
	FillingsUpdate:  mu: -0.098706015  nElectrons: 54.000000
	SubspaceRotationAdjust: set factor to 0.466
ElecMinimize: Iter:   6  F: -255.581203685517949  |grad|_K:  1.823e-08  alpha:  5.938e-01  linmin:  2.315e-05  t[s]:   1321.11
	FillingsUpdate:  mu: -0.098691964  nElectrons: 54.000000

Dumping 'X.fillings' ... done
Dumping 'X.wfns' ... done
Dumping 'X.ionpos' ... done
Dumping 'X.force' ... done
Dumping 'X.eigenvals' ... done
	SubspaceRotationAdjust: set factor to 0.451
ElecMinimize: Iter:   7  F: -255.581203692850693  |grad|_K:  1.380e-08  alpha:  5.066e-01  linmin: -2.171e-05  t[s]:   1328.22
	FillingsUpdate:  mu: -0.098699632  nElectrons: 54.000000
	SubspaceRotationAdjust: set factor to 0.515
ElecMinimize: Iter:   8  F: -255.581203697278454  |grad|_K:  1.104e-08  alpha:  5.315e-01  linmin: -5.527e-04  t[s]:   1335.23
ElecMinimize: Converged (|Delta F|<1.000000e-08 for 2 iters).
Setting wave functions to eigenvectors of Hamiltonian
Converging empty states (this may take a while): |deigs|: 3.386e-09

# Ionic positions in lattice coordinates:
ion Na  -0.000000000000000  -0.000000000000000   0.346596445352400 1
ion Na   0.500000000000000   0.500000000000000   0.408612209046570 1
ion Na  -0.000000000000000   0.000000000000000   0.469405459653489 1
ion Na   0.500000000000000   0.500000000000000   0.530594540346511 1
ion Na  -0.000000000000000  -0.000000000000000   0.591387790953430 1
ion Na   0.500000000000000   0.500000000000000   0.653403554647599 1

# Forces in Lattice coordinates:
force Na   0.000000000000000   0.000000000000000  -0.002083295548456 1
force Na   0.000000000000000   0.000000000000000  -0.002388989629240 1
force Na   0.000000000000000   0.000000000000000  -0.001253559575557 1
force Na   0.000000000000000  -0.000000000000000   0.001253559575557 1
force Na   0.000000000000000   0.000000000000000   0.002388989629240 1
force Na   0.000000000000000   0.000000000000000   0.002083295548001 1

# Energy components:
   Eewald =    -1255.1439079760477853
       EH =    -1050.5523830316540170
     Eloc =     2035.1333312108711198
      Enl =      -77.5801681948527175
   Epulay =        0.0000000201625827
      Exc =      -37.5521529540813788
       KE =      130.1144110218129981
-------------------------------------
     Etot =     -255.5808699037892211
       TS =        0.0003337934892254
-------------------------------------
        F =     -255.5812036972784540

IonicMinimize: Iter:   9  F: -255.581203697278454  |grad|_K:  1.743e-05  alpha:  3.209e-01  linmin: -3.805e-01  t[s]:   1341.62
IonicMinimize: Converged (|Delta F|<1.000000e-07 for 2 iters).

#--- Lowdin population analysis ---
# oxidation-state Na +0.036 +0.057 +0.044 +0.044 +0.057 +0.036


Dumping 'X.fillings' ... done
Dumping 'X.wfns' ... done
Dumping 'X.ionpos' ... done
Dumping 'X.lattice' ... done
Dumping 'X.n' ... done
Dumping 'X.eigenvals' ... done
Dumping 'X.eigStats' ... 
	eMin: -2.060585 at state 0 ( [ +0.000000 +0.000000 +0.000000 ] spin 0 )
	HOMO: -0.098716 at state 16 ( [ +0.272727 +0.363636 +0.000000 ] spin 0 )
	mu  : -0.098700
	LUMO: -0.096973 at state 5 ( [ +0.000000 +0.454545 +0.000000 ] spin 0 )
	eMax: -0.027722 at state 11 ( [ +0.181818 +0.181818 +0.000000 ] spin 0 )
	HOMO-LUMO gap: +0.001743
	Optical gap  : +0.004743 at state 10 ( [ +0.090909 +0.454545 +0.000000 ] spin 0 )
Dumping 'X.dos' ... done.
End date and time: Wed Nov  8 23:49:12 2023  (Duration: 0-0:22:22.62)
Done!
