
*************** JDFTx 1.7.0  ***************

Start date and time: Thu Nov  9 01:06:02 2023
Executable jdftx with command-line: -m -i X.in -o X.out
Running on hosts (process indices):  ac0170 (0-20)
Divided in process groups (process indices):  0 (0)  1 (1)  2 (2)  3 (3)  4 (4)  5 (5)  6 (6)  7 (7)  8 (8)  9 (9)  10 (10)  11 (11)  12 (12)  13 (13)  14 (14)  15 (15)  16 (16)  17 (17)  18 (18)  19 (19)  20 (20)
Resource initialization completed at t[s]:      0.02
Run totals: 21 processes, 21 threads, 0 GPUs


Input parsed successfully to the following command list (including defaults):

basis kpoint-dependent
cache-projectors no
coords-type Lattice
core-overlap-check vector
coulomb-interaction Slab 001
coulomb-truncation-embed 0 0 0.5
davidson-band-ratio 1.1
density-of-states Etol 1.000000e-06 Esigma 0.000000e+00 \
		Complete \
	Total \
		Occupied \
	Total
dump End State IonicPositions Lattice ElecDensity CoreDensity EigStats DOS
dump Electronic State Forces
dump Ionic State IonicPositions Forces Lattice DOS
dump-interval Electronic 8
dump-interval Ionic 4
dump-name X.$var
elec-cutoff 10
elec-eigen-algo Davidson
elec-ex-corr gga-PBE
elec-smearing Fermi 0.0095
electronic-minimize  \
	dirUpdateScheme      FletcherReeves \
	linminMethod         DirUpdateRecommended \
	nIterations          2000 \
	history              15 \
	knormThreshold       0 \
	energyDiffThreshold  1e-06 \
	nEnergyDiff          2 \
	alphaTstart          1 \
	alphaTmin            1e-10 \
	updateTestStepSize   yes \
	alphaTreduceFactor   0.1 \
	alphaTincreaseFactor 3 \
	nAlphaAdjustMax      3 \
	wolfeEnergy          0.0001 \
	wolfeGradient        0.9 \
	fdTest               no
exchange-regularization WignerSeitzTruncated
fluid None
fluid-ex-corr (null) lda-PZ
fluid-gummel-loop 10 1.000000e-05
fluid-minimize  \
	dirUpdateScheme      PolakRibiere \
	linminMethod         DirUpdateRecommended \
	nIterations          100 \
	history              15 \
	knormThreshold       0 \
	energyDiffThreshold  0 \
	nEnergyDiff          2 \
	alphaTstart          1 \
	alphaTmin            1e-10 \
	updateTestStepSize   yes \
	alphaTreduceFactor   0.1 \
	alphaTincreaseFactor 3 \
	nAlphaAdjustMax      3 \
	wolfeEnergy          0.0001 \
	wolfeGradient        0.9 \
	fdTest               no
fluid-solvent H2O 55.338 ScalarEOS \
	epsBulk 78.4 \
	pMol 0.92466 \
	epsInf 1.77 \
	Pvap 1.06736e-10 \
	sigmaBulk 4.62e-05 \
	Rvdw 2.61727 \
	Res 1.42 \
	tauNuc 343133 \
	poleEl 15 7 1
forces-output-coords Positions
initial-state X.$var
ion Na   0.000000000000000   0.000000000000000   0.208340000000000 1
ion Na   0.500000000000000   0.500000000000000   0.244790000000000 1
ion Na   0.000000000000000   0.000000000000000   0.281250000000000 1
ion Na   0.500000000000000   0.500000000000000   0.317710000000000 1
ion Na   0.000000000000000   0.000000000000000   0.354170000000000 1
ion Na   0.500000000000000   0.500000000000000   0.390630000000000 1
ion Na   0.000000000000000   0.000000000000000   0.427080000000000 1
ion Na   0.500000000000000   0.500000000000000   0.463540000000000 1
ion Na   0.000000000000000   0.000000000000000   0.500000000000000 1
ion Na   0.500000000000000   0.500000000000000   0.536460000000000 1
ion Na   0.000000000000000   0.000000000000000   0.572920000000000 1
ion Na   0.500000000000000   0.500000000000000   0.609370000000000 1
ion Na   0.000000000000000   0.000000000000000   0.645830000000000 1
ion Na   0.500000000000000   0.500000000000000   0.682290000000000 1
ion Na   0.000000000000000   0.000000000000000   0.718750000000000 1
ion Na   0.500000000000000   0.500000000000000   0.755210000000000 1
ion Na   0.000000000000000   0.000000000000000   0.791660000000000 1
ion-species SG15/$ID_ONCV_PBE.upf
ion-width 0
ionic-minimize  \
	dirUpdateScheme      L-BFGS \
	linminMethod         DirUpdateRecommended \
	nIterations          0 \
	history              15 \
	knormThreshold       0.0001 \
	energyDiffThreshold  1e-06 \
	nEnergyDiff          2 \
	alphaTstart          1 \
	alphaTmin            1e-10 \
	updateTestStepSize   yes \
	alphaTreduceFactor   0.1 \
	alphaTincreaseFactor 3 \
	nAlphaAdjustMax      3 \
	wolfeEnergy          0.0001 \
	wolfeGradient        0.9 \
	fdTest               no
kpoint   0.000000000000   0.000000000000   0.000000000000  1.00000000000000
kpoint-folding 11 11 1 
latt-move-scale 1 1 1
latt-scale 1.88973 1.88973 1.88973 
lattice  \
	   4.199920000000001   -0.000000000000000   -0.000000000000000  \
	   0.000000000000000    4.199920000000001   -0.000000000000000  \
	   0.000000000000000    0.000000000000000   57.599399999999996 
lattice-minimize  \
	dirUpdateScheme      L-BFGS \
	linminMethod         DirUpdateRecommended \
	nIterations          0 \
	history              15 \
	knormThreshold       0 \
	energyDiffThreshold  1e-06 \
	nEnergyDiff          2 \
	alphaTstart          1 \
	alphaTmin            1e-10 \
	updateTestStepSize   yes \
	alphaTreduceFactor   0.1 \
	alphaTincreaseFactor 3 \
	nAlphaAdjustMax      3 \
	wolfeEnergy          0.0001 \
	wolfeGradient        0.9 \
	fdTest               no
lcao-params -1 1e-06 0.0095
pcm-variant GLSSA13
spintype no-spin
subspace-rotation-factor 1 yes
symmetries automatic
symmetry-threshold 0.0001



---------- Setting up symmetries ----------

Found 16 point-group symmetries of the bravais lattice
Found 16 space-group symmetries with basis
Applied RMS atom displacement 0 bohrs to make symmetries exact.

---------- Initializing the Grid ----------
R = 
[      7.93671            0            0  ]
[            0      7.93671            0  ]
[            0            0      108.847  ]
unit cell volume = 6856.45
G =
[   0.791661          0          0  ]
[         -0   0.791661          0  ]
[          0         -0  0.0577248  ]
Minimum fftbox size, Smin = [  24  24  312  ]
Chosen fftbox size, S = [  24  24  320  ]

---------- Exchange Correlation functional ----------
Initalized PBE GGA exchange.
Initalized PBE GGA correlation.

---------- Setting up pseudopotentials ----------
Width of ionic core gaussian charges (only for fluid interactions / plotting) set to 0

Reading pseudopotential file '/net/software/testing/software/jdftx/1.7.0-foss-2021b-mkl/share/jdftx/pseudopotentials/SG15/Na_ONCV_PBE.upf':
  'Na' pseudopotential, 'PBE' functional
  Generated using ONCVPSP code by D. R. Hamann
  Author: Martin Schlipf and Francois Gygi  Date: 150915.
  9 valence electrons, 3 orbitals, 4 projectors, 1992 radial grid points, with lMax = 1
  Transforming local potential to a uniform radial grid of dG=0.02 with 821 points.
  Transforming nonlocal projectors to a uniform radial grid of dG=0.02 with 307 points.
    2S    l: 0   occupation:  2.0   eigenvalue: -2.085640
    2P    l: 1   occupation:  6.0   eigenvalue: -1.053708
    3S    l: 0   occupation:  1.0   eigenvalue: -0.100838
  Transforming atomic orbitals to a uniform radial grid of dG=0.02 with 307 points.
  Core radius for overlap checks: 2.01 bohrs.
  Reading pulay file /net/software/testing/software/jdftx/1.7.0-foss-2021b-mkl/share/jdftx/pseudopotentials/SG15/Na_ONCV_PBE.pulay ... using dE_dnG = -1.681960e+00 computed for Ecut = 10.

Initialized 1 species with 17 total atoms.

Folded 1 k-points by 11x11x1 to 121 k-points.

---------- Setting up k-points, bands, fillings ----------
Reduced to 21 k-points under symmetry. 
Computing the number of bands and number of electrons
Calculating initial fillings.
nElectrons: 153.000000   nBands: 85   nStates: 21

----- Setting up reduced wavefunction bases (one per k-point) -----
average nbasis = 10355.231 , ideal nbasis = 10356.029

----- Initializing Supercell corresponding to k-point mesh -----
Lattice vector linear combinations in supercell:
[  11   0   0  ]
[   0  11   0  ]
[   0   0   1  ]
Supercell lattice vectors:
[  87.3039  0  0  ]
[  0  87.3039  0  ]
[  0  0  108.847  ]

---------- Setting up coulomb interaction ----------
Setting up double-sized grid for truncated Coulomb potentials:
R = 
[      7.93671            0            0  ]
[            0      7.93671            0  ]
[            0            0      217.695  ]
unit cell volume = 13712.9
G =
[   0.791661          0          0  ]
[         -0   0.791661          0  ]
[          0         -0  0.0288624  ]
Chosen fftbox size, S = [  24  24  640  ]
Integer grid location selected as the embedding center:
   Grid: [  0  0  160  ]
   Lattice: [  0  0  0.5  ]
   Cartesian: [  0  0  54.4237  ]
Constructing Wigner-Seitz cell: 6 faces (6 quadrilaterals, 0 hexagons)
Range-separation parameter for embedded mesh potentials due to point charges: 0.735773 bohrs.
Initialized slab truncation along lattice direction 001

---------- Setting up 2D ewald sum ----------
Optimum gaussian width for ewald sums = 4.734710 bohr.
Real space sums over 225 unit cells with max indices [  7  7  0  ]
Reciprocal space sums over 81 terms with max indices [  4  4  0  ]

---------- Allocating electronic variables ----------
Initializing wave functions:  linear combination of atomic orbitals
Na pseudo-atom occupations:   s ( 2 1 )  p ( 6 )
	FillingsUpdate:  mu: +0.328414212  nElectrons: 153.000000
LCAOMinimize: Iter:   0  F: -708.3905869489748284  |grad|_K:  7.178e-03  alpha:  1.000e+00
LCAOMinimize: 	Step increased F by 1.074601e+00, reducing alpha to 9.084193e-03.
	FillingsUpdate:  mu: +0.123668457  nElectrons: 153.000000
LCAOMinimize: Iter:   1  F: -708.4465810413862528  |grad|_K:  3.890e-03  alpha:  9.084e-03  linmin: -2.140e-01  cgtest:  9.831e-01  t[s]:      3.32
LCAOMinimize: Encountered beta<0, resetting CG.
	FillingsUpdate:  mu: -0.109922399  nElectrons: 153.000000
LCAOMinimize: Iter:   2  F: -708.4709808703968292  |grad|_K:  1.100e-03  alpha:  2.096e-02  linmin:  1.202e-02  cgtest: -7.568e-02  t[s]:      4.34
LCAOMinimize: 	Predicted alpha/alphaT>3.000000, increasing alphaT to 6.286704e-02.
	FillingsUpdate:  mu: -0.156234084  nElectrons: 153.000000
LCAOMinimize: Iter:   3  F: -708.4783262617713717  |grad|_K:  4.731e-04  alpha:  8.005e-02  linmin:  1.525e-03  cgtest:  1.519e-01  t[s]:      5.71
	FillingsUpdate:  mu: -0.117380539  nElectrons: 153.000000
LCAOMinimize: Iter:   4  F: -708.4796132852842447  |grad|_K:  7.449e-04  alpha:  7.437e-02  linmin:  3.496e-05  cgtest:  7.996e-03  t[s]:      6.73
	FillingsUpdate:  mu: -0.142714530  nElectrons: 153.000000
LCAOMinimize: Iter:   5  F: -708.4836158639931227  |grad|_K:  4.076e-04  alpha:  9.300e-02  linmin: -5.102e-05  cgtest: -1.899e-02  t[s]:      7.75
	FillingsUpdate:  mu: -0.174669152  nElectrons: 153.000000
LCAOMinimize: Iter:   6  F: -708.4860190420904473  |grad|_K:  3.867e-04  alpha:  1.859e-01  linmin: -1.548e-05  cgtest: -2.640e-02  t[s]:      8.77
	FillingsUpdate:  mu: -0.149358327  nElectrons: 153.000000
LCAOMinimize: Iter:   7  F: -708.4864324917034537  |grad|_K:  3.248e-04  alpha:  3.541e-02  linmin: -7.771e-05  cgtest: -2.634e-03  t[s]:      9.73
	FillingsUpdate:  mu: -0.142625813  nElectrons: 153.000000
LCAOMinimize: Iter:   8  F: -708.4870836830150438  |grad|_K:  5.087e-05  alpha:  7.930e-02  linmin:  4.039e-04  cgtest: -1.402e-01  t[s]:     10.82
	FillingsUpdate:  mu: -0.147289620  nElectrons: 153.000000
LCAOMinimize: Iter:   9  F: -708.4871012678346460  |grad|_K:  7.309e-05  alpha:  8.813e-02  linmin:  9.148e-06  cgtest:  5.163e-03  t[s]:     11.92
	FillingsUpdate:  mu: -0.144957883  nElectrons: 153.000000
LCAOMinimize: Iter:  10  F: -708.4871172798375483  |grad|_K:  3.188e-05  alpha:  3.857e-02  linmin: -3.088e-05  cgtest: -9.763e-03  t[s]:     12.91
LCAOMinimize: 	Predicted alpha/alphaT>3.000000, increasing alphaT to 1.157132e-01.
	FillingsUpdate:  mu: -0.142933966  nElectrons: 153.000000
LCAOMinimize: Iter:  11  F: -708.4871288141356445  |grad|_K:  1.855e-05  alpha:  1.460e-01  linmin:  6.680e-06  cgtest: -3.391e-03  t[s]:     14.28
	FillingsUpdate:  mu: -0.143847938  nElectrons: 153.000000
LCAOMinimize: Iter:  12  F: -708.4871294048208483  |grad|_K:  8.397e-06  alpha:  2.210e-02  linmin: -3.117e-05  cgtest:  1.344e-03  t[s]:     15.30
LCAOMinimize: 	Predicted alpha/alphaT>3.000000, increasing alphaT to 6.629754e-02.
	FillingsUpdate:  mu: -0.144401212  nElectrons: 153.000000
LCAOMinimize: Iter:  13  F: -708.4871302895361396  |grad|_K:  7.919e-06  alpha:  1.620e-01  linmin:  9.417e-05  cgtest: -3.585e-03  t[s]:     16.67
LCAOMinimize: Converged (|Delta F|<1.000000e-06 for 2 iters).


---- Citations for features of the code used in this run ----

   Software package:
      R. Sundararaman, K. Letchworth-Weaver, K.A. Schwarz, D. Gunceler, Y. Ozhabes and T.A. Arias, 'JDFTx: software for joint density-functional theory', SoftwareX 6, 278 (2017)

   gga-PBE exchange-correlation functional:
      J.P. Perdew, K. Burke and M. Ernzerhof, Phys. Rev. Lett. 77, 3865 (1996)

   Pseudopotentials:
      M Schlipf and F Gygi, Comput. Phys. Commun. 196, 36 (2015)

   Truncated Coulomb potentials:
      R. Sundararaman and T.A. Arias, Phys. Rev. B 87, 165122 (2013)

   Total energy minimization with Auxiliary Hamiltonian:
      C. Freysoldt, S. Boeck, and J. Neugebauer, Phys. Rev. B 79, 241103(R) (2009)

   Linear-tetrahedron sampling for density of states:
      G. Lehmann and M. Taut, Phys. status solidi (b) 54, 469 (1972)

This list may not be complete. Please suggest additional citations or
report any other bugs at https://github.com/shankar1729/jdftx/issues

Initialization completed successfully at t[s]:     16.80


-------- Electronic minimization -----------
	FillingsUpdate:  mu: -0.144401211  nElectrons: 153.000000
ElecMinimize: Iter:   0  F: -708.487130289536140  |grad|_K:  4.325e-04  alpha:  1.000e+00
	FillingsUpdate:  mu: -0.124258662  nElectrons: 153.000000
	SubspaceRotationAdjust: set factor to 1
ElecMinimize: Iter:   1  F: -709.498624662791144  |grad|_K:  1.104e-04  alpha:  2.921e-01  linmin:  2.372e-03  t[s]:     19.33
	FillingsUpdate:  mu: -0.258456670  nElectrons: 153.000000
	SubspaceRotationAdjust: set factor to 0.542
ElecMinimize: Iter:   2  F: -709.568637687301020  |grad|_K:  1.614e-04  alpha:  3.109e-01  linmin:  4.672e-05  t[s]:     20.87
	FillingsUpdate:  mu: -0.137069622  nElectrons: 153.000000
	SubspaceRotationAdjust: set factor to 0.342
ElecMinimize: Iter:   3  F: -709.579180102541045  |grad|_K:  4.687e-05  alpha:  2.129e-02  linmin: -3.333e-04  t[s]:     22.42
ElecMinimize: 	Predicted alpha/alphaT>3.000000, increasing alphaT to 6.387537e-02.
ElecMinimize: 	Predicted alpha/alphaT>3.000000, increasing alphaT to 1.916261e-01.
	FillingsUpdate:  mu: -0.034189273  nElectrons: 153.000000
	SubspaceRotationAdjust: set factor to 0.201
ElecMinimize: Iter:   4  F: -709.591778948717206  |grad|_K:  7.994e-05  alpha:  3.008e-01  linmin: -3.326e-07  t[s]:     24.92
	FillingsUpdate:  mu: -0.102055582  nElectrons: 153.000000
	SubspaceRotationAdjust: set factor to 0.266
ElecMinimize: Iter:   5  F: -709.602307138686456  |grad|_K:  4.107e-05  alpha:  8.750e-02  linmin: -1.105e-04  t[s]:     26.50
ElecMinimize: 	Predicted alpha/alphaT>3.000000, increasing alphaT to 2.624969e-01.
	FillingsUpdate:  mu: -0.199248291  nElectrons: 153.000000
	SubspaceRotationAdjust: set factor to 0.166
ElecMinimize: Iter:   6  F: -709.611356484418025  |grad|_K:  6.994e-05  alpha:  2.855e-01  linmin:  8.584e-05  t[s]:     28.51
	FillingsUpdate:  mu: -0.156010595  nElectrons: 153.000000

Dumping 'X.fillings' ... done
Dumping 'X.wfns' ... done
Dumping 'X.force' ... done
Dumping 'X.eigenvals' ... done
	SubspaceRotationAdjust: set factor to 0.271
ElecMinimize: Iter:   7  F: -709.624918459420769  |grad|_K:  4.136e-05  alpha:  1.490e-01  linmin: -3.378e-05  t[s]:     30.33
	FillingsUpdate:  mu: -0.078440741  nElectrons: 153.000000
	SubspaceRotationAdjust: set factor to 0.192
ElecMinimize: Iter:   8  F: -709.631777497272651  |grad|_K:  5.400e-05  alpha:  2.160e-01  linmin:  9.257e-05  t[s]:     31.91
	FillingsUpdate:  mu: -0.117024329  nElectrons: 153.000000
	SubspaceRotationAdjust: set factor to 0.258
ElecMinimize: Iter:   9  F: -709.640550663722934  |grad|_K:  2.874e-05  alpha:  1.634e-01  linmin:  1.029e-05  t[s]:     33.45
	FillingsUpdate:  mu: -0.152573734  nElectrons: 153.000000
	SubspaceRotationAdjust: set factor to 0.173
ElecMinimize: Iter:  10  F: -709.644983791192317  |grad|_K:  3.551e-05  alpha:  2.905e-01  linmin:  3.279e-04  t[s]:     34.99
	FillingsUpdate:  mu: -0.103393594  nElectrons: 153.000000
	SubspaceRotationAdjust: set factor to 0.137
ElecMinimize: Iter:  11  F: -709.647541334953758  |grad|_K:  1.804e-05  alpha:  1.085e-01  linmin: -5.301e-04  t[s]:     36.53
ElecMinimize: 	Predicted alpha/alphaT>3.000000, increasing alphaT to 3.254745e-01.
	FillingsUpdate:  mu: -0.082612876  nElectrons: 153.000000
	SubspaceRotationAdjust: set factor to 0.115
	SubspaceRotationAdjust: resetting CG because factor has changed by 0.114579
ElecMinimize: 	State modified externally: resetting search direction.
ElecMinimize: Iter:  12  F: -709.649656558090783  |grad|_K:  1.865e-05  alpha:  3.461e-01
	FillingsUpdate:  mu: -0.121118376  nElectrons: 153.000000
	SubspaceRotationAdjust: set factor to 0.107
ElecMinimize: Iter:  13  F: -709.650900098967099  |grad|_K:  1.071e-05  alpha:  1.922e-01  linmin: -2.460e-05  t[s]:     40.94
ElecMinimize: 	Predicted alpha/alphaT>3.000000, increasing alphaT to 5.766088e-01.
	FillingsUpdate:  mu: -0.109342535  nElectrons: 153.000000
	SubspaceRotationAdjust: set factor to 0.0985
ElecMinimize: Iter:  14  F: -709.652361065396462  |grad|_K:  1.147e-05  alpha:  6.858e-01  linmin:  1.363e-05  t[s]:     42.96
	FillingsUpdate:  mu: -0.119725022  nElectrons: 153.000000

Dumping 'X.fillings' ... done
Dumping 'X.wfns' ... done
Dumping 'X.force' ... done
Dumping 'X.eigenvals' ... done
	SubspaceRotationAdjust: set factor to 0.101
ElecMinimize: Iter:  15  F: -709.653817235786278  |grad|_K:  1.019e-05  alpha:  5.978e-01  linmin:  3.126e-06  t[s]:     44.73
	FillingsUpdate:  mu: -0.119049492  nElectrons: 153.000000
	SubspaceRotationAdjust: set factor to 0.107
ElecMinimize: Iter:  16  F: -709.654921269853048  |grad|_K:  8.603e-06  alpha:  5.734e-01  linmin:  3.266e-06  t[s]:     46.27
	FillingsUpdate:  mu: -0.109650222  nElectrons: 153.000000
	SubspaceRotationAdjust: set factor to 0.104
ElecMinimize: Iter:  17  F: -709.655510163913959  |grad|_K:  6.793e-06  alpha:  4.286e-01  linmin:  8.023e-08  t[s]:     47.81
	FillingsUpdate:  mu: -0.120555384  nElectrons: 153.000000
	SubspaceRotationAdjust: set factor to 0.0918
ElecMinimize: Iter:  18  F: -709.655942034452551  |grad|_K:  6.722e-06  alpha:  5.046e-01  linmin:  1.604e-05  t[s]:     49.39
	FillingsUpdate:  mu: -0.106595520  nElectrons: 153.000000
	SubspaceRotationAdjust: set factor to 0.0724
ElecMinimize: Iter:  19  F: -709.656415357450101  |grad|_K:  7.542e-06  alpha:  5.671e-01  linmin:  3.274e-05  t[s]:     50.80
	FillingsUpdate:  mu: -0.118166683  nElectrons: 153.000000
	SubspaceRotationAdjust: set factor to 0.0659
ElecMinimize: Iter:  20  F: -709.656885342969076  |grad|_K:  5.679e-06  alpha:  4.476e-01  linmin:  9.434e-06  t[s]:     52.22
	FillingsUpdate:  mu: -0.120177879  nElectrons: 153.000000
	SubspaceRotationAdjust: set factor to 0.0718
ElecMinimize: Iter:  21  F: -709.657147606833973  |grad|_K:  4.208e-06  alpha:  4.392e-01  linmin:  7.501e-06  t[s]:     53.84
	FillingsUpdate:  mu: -0.113325383  nElectrons: 153.000000
	SubspaceRotationAdjust: set factor to 0.0632
ElecMinimize: Iter:  22  F: -709.657291927828396  |grad|_K:  3.428e-06  alpha:  4.397e-01  linmin:  1.579e-05  t[s]:     55.37
	FillingsUpdate:  mu: -0.116644578  nElectrons: 153.000000

Dumping 'X.fillings' ... done
Dumping 'X.wfns' ... done
Dumping 'X.force' ... done
Dumping 'X.eigenvals' ... done
	SubspaceRotationAdjust: set factor to 0.0612
ElecMinimize: Iter:  23  F: -709.657413478347621  |grad|_K:  3.064e-06  alpha:  5.586e-01  linmin:  1.531e-05  t[s]:     57.15
	FillingsUpdate:  mu: -0.116204406  nElectrons: 153.000000
	SubspaceRotationAdjust: set factor to 0.0655
ElecMinimize: Iter:  24  F: -709.657493418046897  |grad|_K:  2.312e-06  alpha:  4.596e-01  linmin:  4.766e-06  t[s]:     58.70
	FillingsUpdate:  mu: -0.113647200  nElectrons: 153.000000
	SubspaceRotationAdjust: set factor to 0.0651
ElecMinimize: Iter:  25  F: -709.657545917520110  |grad|_K:  2.297e-06  alpha:  5.296e-01  linmin:  1.921e-05  t[s]:     60.24
	FillingsUpdate:  mu: -0.115201976  nElectrons: 153.000000
	SubspaceRotationAdjust: set factor to 0.0662
ElecMinimize: Iter:  26  F: -709.657597246023329  |grad|_K:  2.008e-06  alpha:  5.245e-01  linmin:  2.473e-05  t[s]:     61.77
	FillingsUpdate:  mu: -0.115071615  nElectrons: 153.000000
	SubspaceRotationAdjust: set factor to 0.0689
ElecMinimize: Iter:  27  F: -709.657643930480162  |grad|_K:  2.106e-06  alpha:  6.246e-01  linmin:  2.710e-05  t[s]:     63.31
	FillingsUpdate:  mu: -0.113956009  nElectrons: 153.000000
	SubspaceRotationAdjust: set factor to 0.07
ElecMinimize: Iter:  28  F: -709.657687876888758  |grad|_K:  1.857e-06  alpha:  5.343e-01  linmin:  1.520e-05  t[s]:     64.85
	FillingsUpdate:  mu: -0.115453962  nElectrons: 153.000000
	SubspaceRotationAdjust: set factor to 0.07
ElecMinimize: Iter:  29  F: -709.657719032962518  |grad|_K:  1.660e-06  alpha:  4.874e-01  linmin:  1.257e-05  t[s]:     66.39
	FillingsUpdate:  mu: -0.114832293  nElectrons: 153.000000
	SubspaceRotationAdjust: set factor to 0.0711
ElecMinimize: Iter:  30  F: -709.657747747206258  |grad|_K:  1.541e-06  alpha:  5.620e-01  linmin:  1.626e-05  t[s]:     67.93
	FillingsUpdate:  mu: -0.114996089  nElectrons: 153.000000

Dumping 'X.fillings' ... done
Dumping 'X.wfns' ... done
Dumping 'X.force' ... done
Dumping 'X.eigenvals' ... done
	SubspaceRotationAdjust: set factor to 0.0741
ElecMinimize: Iter:  31  F: -709.657769893752061  |grad|_K:  1.247e-06  alpha:  5.030e-01  linmin:  6.702e-06  t[s]:     69.67
	FillingsUpdate:  mu: -0.115862582  nElectrons: 153.000000
	SubspaceRotationAdjust: set factor to 0.0751
ElecMinimize: Iter:  32  F: -709.657782529096494  |grad|_K:  1.001e-06  alpha:  4.378e-01  linmin:  2.728e-06  t[s]:     71.22
	FillingsUpdate:  mu: -0.114833011  nElectrons: 153.000000
	SubspaceRotationAdjust: set factor to 0.0746
ElecMinimize: Iter:  33  F: -709.657791427154848  |grad|_K:  8.570e-07  alpha:  4.790e-01  linmin:  1.646e-06  t[s]:     72.77
	FillingsUpdate:  mu: -0.115242893  nElectrons: 153.000000
	SubspaceRotationAdjust: set factor to 0.077
ElecMinimize: Iter:  34  F: -709.657799413118596  |grad|_K:  8.372e-07  alpha:  5.861e-01  linmin:  3.858e-06  t[s]:     74.35
	FillingsUpdate:  mu: -0.115472210  nElectrons: 153.000000
	SubspaceRotationAdjust: set factor to 0.0811
ElecMinimize: Iter:  35  F: -709.657806202347274  |grad|_K:  7.526e-07  alpha:  5.222e-01  linmin:  2.563e-06  t[s]:     75.87
	FillingsUpdate:  mu: -0.114831676  nElectrons: 153.000000
	SubspaceRotationAdjust: set factor to 0.0801
ElecMinimize: Iter:  36  F: -709.657811288038943  |grad|_K:  6.831e-07  alpha:  4.841e-01  linmin: -1.378e-07  t[s]:     77.42
	FillingsUpdate:  mu: -0.115644830  nElectrons: 153.000000
	SubspaceRotationAdjust: set factor to 0.0774
ElecMinimize: Iter:  37  F: -709.657815987005392  |grad|_K:  6.265e-07  alpha:  5.428e-01  linmin:  4.040e-06  t[s]:     78.95
	FillingsUpdate:  mu: -0.115280054  nElectrons: 153.000000
	SubspaceRotationAdjust: set factor to 0.0782
ElecMinimize: Iter:  38  F: -709.657820128151911  |grad|_K:  6.498e-07  alpha:  5.690e-01  linmin:  1.434e-06  t[s]:     80.50
	FillingsUpdate:  mu: -0.115272356  nElectrons: 153.000000

Dumping 'X.fillings' ... done
Dumping 'X.wfns' ... done
Dumping 'X.force' ... done
Dumping 'X.eigenvals' ... done
	SubspaceRotationAdjust: set factor to 0.0808
ElecMinimize: Iter:  39  F: -709.657824441153934  |grad|_K:  5.951e-07  alpha:  5.505e-01  linmin:  2.043e-06  t[s]:     82.25
	FillingsUpdate:  mu: -0.115509143  nElectrons: 153.000000
	SubspaceRotationAdjust: set factor to 0.0816
ElecMinimize: Iter:  40  F: -709.657827555094627  |grad|_K:  4.979e-07  alpha:  4.738e-01  linmin:  1.013e-06  t[s]:     83.79
	FillingsUpdate:  mu: -0.115141992  nElectrons: 153.000000
	SubspaceRotationAdjust: set factor to 0.0813
ElecMinimize: Iter:  41  F: -709.657829949564189  |grad|_K:  4.562e-07  alpha:  5.206e-01  linmin: -7.435e-08  t[s]:     85.33
	FillingsUpdate:  mu: -0.115508187  nElectrons: 153.000000
	SubspaceRotationAdjust: set factor to 0.0803
ElecMinimize: Iter:  42  F: -709.657831912049346  |grad|_K:  4.262e-07  alpha:  5.082e-01  linmin:  2.867e-06  t[s]:     86.91
	FillingsUpdate:  mu: -0.115149152  nElectrons: 153.000000
	SubspaceRotationAdjust: set factor to 0.0809
ElecMinimize: Iter:  43  F: -709.657833685901210  |grad|_K:  3.910e-07  alpha:  5.263e-01  linmin:  3.879e-07  t[s]:     88.45
	FillingsUpdate:  mu: -0.115148566  nElectrons: 153.000000
	SubspaceRotationAdjust: set factor to 0.0852
ElecMinimize: Iter:  44  F: -709.657835214353554  |grad|_K:  3.552e-07  alpha:  5.388e-01  linmin: -1.862e-06  t[s]:     89.99
	FillingsUpdate:  mu: -0.115374861  nElectrons: 153.000000
	SubspaceRotationAdjust: set factor to 0.0872
ElecMinimize: Iter:  45  F: -709.657836446961483  |grad|_K:  3.474e-07  alpha:  5.260e-01  linmin:  5.904e-06  t[s]:     91.53
	FillingsUpdate:  mu: -0.115005911  nElectrons: 153.000000
	SubspaceRotationAdjust: set factor to 0.0846
ElecMinimize: Iter:  46  F: -709.657837652071066  |grad|_K:  3.380e-07  alpha:  5.381e-01  linmin: -5.205e-06  t[s]:     93.07
	FillingsUpdate:  mu: -0.115381323  nElectrons: 153.000000

Dumping 'X.fillings' ... done
Dumping 'X.wfns' ... done
Dumping 'X.force' ... done
Dumping 'X.eigenvals' ... done
	SubspaceRotationAdjust: set factor to 0.0817
ElecMinimize: Iter:  47  F: -709.657838768834722  |grad|_K:  3.141e-07  alpha:  5.263e-01  linmin:  8.266e-07  t[s]:     94.88
	FillingsUpdate:  mu: -0.115134820  nElectrons: 153.000000
	SubspaceRotationAdjust: set factor to 0.0826
ElecMinimize: Iter:  48  F: -709.657839704578919  |grad|_K:  2.860e-07  alpha:  5.113e-01  linmin: -1.606e-06  t[s]:     96.44
	FillingsUpdate:  mu: -0.115180540  nElectrons: 153.000000
	SubspaceRotationAdjust: set factor to 0.0865
ElecMinimize: Iter:  49  F: -709.657840453234826  |grad|_K:  2.585e-07  alpha:  4.929e-01  linmin:  9.673e-07  t[s]:     97.98
ElecMinimize: Converged (|Delta F|<1.000000e-06 for 2 iters).
Setting wave functions to eigenvectors of Hamiltonian

# Ionic positions in lattice coordinates:
ion Na   0.000000000000000   0.000000000000000   0.208340000000000 1
ion Na   0.500000000000000   0.500000000000000   0.244790000000000 1
ion Na   0.000000000000000   0.000000000000000   0.281250000000000 1
ion Na   0.500000000000000   0.500000000000000   0.317710000000000 1
ion Na   0.000000000000000   0.000000000000000   0.354170000000000 1
ion Na   0.500000000000000   0.500000000000000   0.390630000000000 1
ion Na   0.000000000000000   0.000000000000000   0.427080000000000 1
ion Na   0.500000000000000   0.500000000000000   0.463540000000000 1
ion Na   0.000000000000000   0.000000000000000   0.500000000000000 1
ion Na   0.500000000000000   0.500000000000000   0.536460000000000 1
ion Na   0.000000000000000   0.000000000000000   0.572920000000000 1
ion Na   0.500000000000000   0.500000000000000   0.609370000000000 1
ion Na   0.000000000000000   0.000000000000000   0.645830000000000 1
ion Na   0.500000000000000   0.500000000000000   0.682290000000000 1
ion Na   0.000000000000000   0.000000000000000   0.718750000000000 1
ion Na   0.500000000000000   0.500000000000000   0.755210000000000 1
ion Na   0.000000000000000   0.000000000000000   0.791660000000000 1

# Forces in Lattice coordinates:
force Na  -0.000000000000000   0.000000000000000   0.051994573189838 1
force Na   0.000000000000000   0.000000000000000  -0.004135502214734 1
force Na   0.000000000000000  -0.000000000000000  -0.003123324620798 1
force Na  -0.000000000000000   0.000000000000000  -0.003879421914006 1
force Na   0.000000000000000   0.000000000000000  -0.003619167284867 1
force Na   0.000000000000000   0.000000000000000  -0.000104581191909 1
force Na   0.000000000000000   0.000000000000000   0.003576208384231 1
force Na   0.000000000000000   0.000000000000000  -0.000877245306403 1
force Na   0.000000000000000  -0.000000000000000   0.000000000000000 1
force Na   0.000000000000000   0.000000000000000   0.000877245306631 1
force Na   0.000000000000000   0.000000000000000  -0.003576208384231 1
force Na   0.000000000000000   0.000000000000000   0.000104581191909 1
force Na   0.000000000000000   0.000000000000000   0.003619167283958 1
force Na   0.000000000000000   0.000000000000000   0.003879421910368 1
force Na   0.000000000000000   0.000000000000000   0.003123324618979 1
force Na   0.000000000000000  -0.000000000000000   0.004135502214734 1
force Na  -0.000000000000000   0.000000000000000  -0.051994573193476 1

# Energy components:
   Eewald =   -26522.6385325730952900
       EH =   -25972.8903398897527950
     Eloc =    51745.8390644164173864
      Enl =     -196.3381812175109644
   Epulay =       -0.0033270317995731
      Exc =     -101.6288430437502228
       KE =      338.0639332235325014
-------------------------------------
     Etot =     -709.5962261159588707
       TS =        0.0616143372759206
-------------------------------------
        F =     -709.6578404532348259

IonicMinimize: Iter:   0  F: -709.657840453234826  |grad|_K:  9.579e-05  t[s]:     98.29
IonicMinimize: Converged (|grad|_K<1.000000e-04).

#--- Lowdin population analysis ---
# oxidation-state Na +0.071 +0.046 +0.038 +0.049 +0.045 +0.046 +0.047 +0.046 +0.047 +0.046 +0.047 +0.046 +0.045 +0.049 +0.038 +0.046 +0.071


Dumping 'X.fillings' ... done
Dumping 'X.wfns' ... done
Dumping 'X.ionpos' ... done
Dumping 'X.lattice' ... done
Dumping 'X.n' ... done
Dumping 'X.eigenvals' ... done
Dumping 'X.eigStats' ... 
	eMin: -2.309517 at state 0 ( [ +0.000000 +0.000000 +0.000000 ] spin 0 )
	HOMO: -0.116243 at state 14 ( [ +0.181818 +0.454545 +0.000000 ] spin 0 )
	mu  : -0.115181
	LUMO: -0.115141 at state 8 ( [ +0.090909 +0.272727 +0.000000 ] spin 0 )
	eMax: -0.006023 at state 11 ( [ +0.181818 +0.181818 +0.000000 ] spin 0 )
	HOMO-LUMO gap: +0.001101
	Optical gap  : +0.002856 at state 14 ( [ +0.181818 +0.454545 +0.000000 ] spin 0 )
Dumping 'X.dos' ... done.
End date and time: Thu Nov  9 01:07:41 2023  (Duration: 0-0:01:38.63)
Done!

*************** JDFTx 1.7.0  ***************

Start date and time: Thu Nov  9 01:07:43 2023
Executable jdftx with command-line: -m -i X.in -o X.out
Running on hosts (process indices):  ac0170 (0-20)
Divided in process groups (process indices):  0 (0)  1 (1)  2 (2)  3 (3)  4 (4)  5 (5)  6 (6)  7 (7)  8 (8)  9 (9)  10 (10)  11 (11)  12 (12)  13 (13)  14 (14)  15 (15)  16 (16)  17 (17)  18 (18)  19 (19)  20 (20)
Resource initialization completed at t[s]:      0.02
Run totals: 21 processes, 21 threads, 0 GPUs


Input parsed successfully to the following command list (including defaults):

basis kpoint-dependent
cache-projectors no
coords-type Lattice
core-overlap-check vector
coulomb-interaction Slab 001
coulomb-truncation-embed 0 0 0.5
davidson-band-ratio 1.1
density-of-states Etol 1.000000e-06 Esigma 0.000000e+00 \
		Complete \
	Total \
		Occupied \
	Total
dump End State IonicPositions Lattice ElecDensity CoreDensity EigStats DOS
dump Electronic State Forces
dump Ionic State IonicPositions Forces Lattice DOS
dump-interval Electronic 8
dump-interval Ionic 4
dump-name X.$var
elec-cutoff 20
elec-eigen-algo Davidson
elec-ex-corr gga-PBE
elec-smearing Fermi 0.0095
electronic-minimize  \
	dirUpdateScheme      FletcherReeves \
	linminMethod         DirUpdateRecommended \
	nIterations          2000 \
	history              15 \
	knormThreshold       0 \
	energyDiffThreshold  1e-07 \
	nEnergyDiff          2 \
	alphaTstart          1 \
	alphaTmin            1e-10 \
	updateTestStepSize   yes \
	alphaTreduceFactor   0.1 \
	alphaTincreaseFactor 3 \
	nAlphaAdjustMax      3 \
	wolfeEnergy          0.0001 \
	wolfeGradient        0.9 \
	fdTest               no
exchange-regularization WignerSeitzTruncated
fluid None
fluid-ex-corr (null) lda-PZ
fluid-gummel-loop 10 1.000000e-05
fluid-minimize  \
	dirUpdateScheme      PolakRibiere \
	linminMethod         DirUpdateRecommended \
	nIterations          100 \
	history              15 \
	knormThreshold       0 \
	energyDiffThreshold  0 \
	nEnergyDiff          2 \
	alphaTstart          1 \
	alphaTmin            1e-10 \
	updateTestStepSize   yes \
	alphaTreduceFactor   0.1 \
	alphaTincreaseFactor 3 \
	nAlphaAdjustMax      3 \
	wolfeEnergy          0.0001 \
	wolfeGradient        0.9 \
	fdTest               no
fluid-solvent H2O 55.338 ScalarEOS \
	epsBulk 78.4 \
	pMol 0.92466 \
	epsInf 1.77 \
	Pvap 1.06736e-10 \
	sigmaBulk 4.62e-05 \
	Rvdw 2.61727 \
	Res 1.42 \
	tauNuc 343133 \
	poleEl 15 7 1
forces-output-coords Positions
ion Na   0.000000000000000   0.000000000000000   0.208340000000000 1
ion Na   0.500000000000000   0.500000000000000   0.244790000000000 1
ion Na   0.000000000000000   0.000000000000000   0.281250000000000 1
ion Na   0.500000000000000   0.500000000000000   0.317710000000000 1
ion Na   0.000000000000000   0.000000000000000   0.354170000000000 1
ion Na   0.500000000000000   0.500000000000000   0.390630000000000 1
ion Na   0.000000000000000   0.000000000000000   0.427080000000000 1
ion Na   0.500000000000000   0.500000000000000   0.463540000000000 1
ion Na   0.000000000000000   0.000000000000000   0.500000000000000 1
ion Na   0.500000000000000   0.500000000000000   0.536460000000000 1
ion Na   0.000000000000000   0.000000000000000   0.572920000000000 1
ion Na   0.500000000000000   0.500000000000000   0.609370000000000 1
ion Na   0.000000000000000   0.000000000000000   0.645830000000000 1
ion Na   0.500000000000000   0.500000000000000   0.682290000000000 1
ion Na   0.000000000000000   0.000000000000000   0.718750000000000 1
ion Na   0.500000000000000   0.500000000000000   0.755210000000000 1
ion Na   0.000000000000000   0.000000000000000   0.791660000000000 1
ion-species SG15/$ID_ONCV_PBE.upf
ion-width 0
ionic-minimize  \
	dirUpdateScheme      L-BFGS \
	linminMethod         DirUpdateRecommended \
	nIterations          0 \
	history              15 \
	knormThreshold       0.0001 \
	energyDiffThreshold  1e-06 \
	nEnergyDiff          2 \
	alphaTstart          1 \
	alphaTmin            1e-10 \
	updateTestStepSize   yes \
	alphaTreduceFactor   0.1 \
	alphaTincreaseFactor 3 \
	nAlphaAdjustMax      3 \
	wolfeEnergy          0.0001 \
	wolfeGradient        0.9 \
	fdTest               no
kpoint   0.000000000000   0.000000000000   0.000000000000  1.00000000000000
kpoint-folding 11 11 1 
latt-move-scale 1 1 1
latt-scale 1 1 1 
lattice  \
	   7.936714821600003   -0.000000000000000   -0.000000000000000  \
	   0.000000000000000    7.936714821600003   -0.000000000000000  \
	   0.000000000000000    0.000000000000000  108.847314162000004 
lattice-minimize  \
	dirUpdateScheme      L-BFGS \
	linminMethod         DirUpdateRecommended \
	nIterations          0 \
	history              15 \
	knormThreshold       0 \
	energyDiffThreshold  1e-06 \
	nEnergyDiff          2 \
	alphaTstart          1 \
	alphaTmin            1e-10 \
	updateTestStepSize   yes \
	alphaTreduceFactor   0.1 \
	alphaTincreaseFactor 3 \
	nAlphaAdjustMax      3 \
	wolfeEnergy          0.0001 \
	wolfeGradient        0.9 \
	fdTest               no
lcao-params -1 1e-06 0.0095
pcm-variant GLSSA13
spintype no-spin
subspace-rotation-factor 1 yes
symmetries automatic
symmetry-threshold 0.0001
wavefunction read X.wfns 85 10.000000



---------- Setting up symmetries ----------

Found 16 point-group symmetries of the bravais lattice
Found 16 space-group symmetries with basis
Applied RMS atom displacement 0 bohrs to make symmetries exact.

---------- Initializing the Grid ----------
R = 
[      7.93671            0            0  ]
[            0      7.93671            0  ]
[            0            0      108.847  ]
unit cell volume = 6856.45
G =
[   0.791661          0          0  ]
[         -0   0.791661          0  ]
[          0         -0  0.0577248  ]
Minimum fftbox size, Smin = [  32  32  440  ]
Chosen fftbox size, S = [  32  32  448  ]

---------- Exchange Correlation functional ----------
Initalized PBE GGA exchange.
Initalized PBE GGA correlation.

---------- Setting up pseudopotentials ----------
Width of ionic core gaussian charges (only for fluid interactions / plotting) set to 0

Reading pseudopotential file '/net/software/testing/software/jdftx/1.7.0-foss-2021b-mkl/share/jdftx/pseudopotentials/SG15/Na_ONCV_PBE.upf':
  'Na' pseudopotential, 'PBE' functional
  Generated using ONCVPSP code by D. R. Hamann
  Author: Martin Schlipf and Francois Gygi  Date: 150915.
  9 valence electrons, 3 orbitals, 4 projectors, 1992 radial grid points, with lMax = 1
  Transforming local potential to a uniform radial grid of dG=0.02 with 1110 points.
  Transforming nonlocal projectors to a uniform radial grid of dG=0.02 with 432 points.
    2S    l: 0   occupation:  2.0   eigenvalue: -2.085640
    2P    l: 1   occupation:  6.0   eigenvalue: -1.053708
    3S    l: 0   occupation:  1.0   eigenvalue: -0.100838
  Transforming atomic orbitals to a uniform radial grid of dG=0.02 with 432 points.
  Core radius for overlap checks: 2.01 bohrs.
  Reading pulay file /net/software/testing/software/jdftx/1.7.0-foss-2021b-mkl/share/jdftx/pseudopotentials/SG15/Na_ONCV_PBE.pulay ... using dE_dnG = -2.946487e-03 computed for Ecut = 20.

Initialized 1 species with 17 total atoms.

Folded 1 k-points by 11x11x1 to 121 k-points.

---------- Setting up k-points, bands, fillings ----------
Reduced to 21 k-points under symmetry. 
Computing the number of bands and number of electrons
Calculating initial fillings.
nElectrons: 153.000000   nBands: 85   nStates: 21

----- Setting up reduced wavefunction bases (one per k-point) -----
average nbasis = 29290.769 , ideal nbasis = 29291.274

----- Initializing Supercell corresponding to k-point mesh -----
Lattice vector linear combinations in supercell:
[  11   0   0  ]
[   0  11   0  ]
[   0   0   1  ]
Supercell lattice vectors:
[  87.3039  0  0  ]
[  0  87.3039  0  ]
[  0  0  108.847  ]

---------- Setting up coulomb interaction ----------
Setting up double-sized grid for truncated Coulomb potentials:
R = 
[      7.93671            0            0  ]
[            0      7.93671            0  ]
[            0            0      217.695  ]
unit cell volume = 13712.9
G =
[   0.791661          0          0  ]
[         -0   0.791661          0  ]
[          0         -0  0.0288624  ]
Chosen fftbox size, S = [  32  32  896  ]
Integer grid location selected as the embedding center:
   Grid: [  0  0  224  ]
   Lattice: [  0  0  0.5  ]
   Cartesian: [  0  0  54.4237  ]
Constructing Wigner-Seitz cell: 6 faces (6 quadrilaterals, 0 hexagons)
Range-separation parameter for embedded mesh potentials due to point charges: 0.628283 bohrs.
Initialized slab truncation along lattice direction 001

---------- Setting up 2D ewald sum ----------
Optimum gaussian width for ewald sums = 4.734710 bohr.
Real space sums over 225 unit cells with max indices [  7  7  0  ]
Reciprocal space sums over 81 terms with max indices [  4  4  0  ]

---------- Allocating electronic variables ----------
Initializing wave functions:  reading from 'X.wfns'


---- Citations for features of the code used in this run ----

   Software package:
      R. Sundararaman, K. Letchworth-Weaver, K.A. Schwarz, D. Gunceler, Y. Ozhabes and T.A. Arias, 'JDFTx: software for joint density-functional theory', SoftwareX 6, 278 (2017)

   gga-PBE exchange-correlation functional:
      J.P. Perdew, K. Burke and M. Ernzerhof, Phys. Rev. Lett. 77, 3865 (1996)

   Pseudopotentials:
      M Schlipf and F Gygi, Comput. Phys. Commun. 196, 36 (2015)

   Truncated Coulomb potentials:
      R. Sundararaman and T.A. Arias, Phys. Rev. B 87, 165122 (2013)

   Total energy minimization with Auxiliary Hamiltonian:
      C. Freysoldt, S. Boeck, and J. Neugebauer, Phys. Rev. B 79, 241103(R) (2009)

   Linear-tetrahedron sampling for density of states:
      G. Lehmann and M. Taut, Phys. status solidi (b) 54, 469 (1972)

This list may not be complete. Please suggest additional citations or
report any other bugs at https://github.com/shankar1729/jdftx/issues

Initialization completed successfully at t[s]:      1.02


Setting the auxilliary hamiltonian equal to the subspace hamiltonian.

-------- Electronic minimization -----------
	FillingsUpdate:  mu: -0.039583318  nElectrons: 153.000000
ElecMinimize: Iter:   0  F: -709.615115807025177  |grad|_K:  1.002e-03  alpha:  1.000e+00
	FillingsUpdate:  mu: -1.020441446  nElectrons: 153.000000
	SubspaceRotationAdjust: set factor to 0.581
ElecMinimize: Iter:   1  F: -722.290641524848525  |grad|_K:  7.268e-04  alpha:  2.502e-01  linmin:  5.418e-03  t[s]:     13.14
	FillingsUpdate:  mu: +0.646521053  nElectrons: 153.000000
	SubspaceRotationAdjust: set factor to 0.251
ElecMinimize: Iter:   2  F: -722.714859739198118  |grad|_K:  4.960e-04  alpha:  4.139e-02  linmin:  5.928e-03  t[s]:     18.85
ElecMinimize: 	Predicted alpha/alphaT>3.000000, increasing alphaT to 1.241618e-01.
	FillingsUpdate:  mu: +0.478691417  nElectrons: 153.000000
	SubspaceRotationAdjust: set factor to 0.192
ElecMinimize: Iter:   3  F: -723.620288917198764  |grad|_K:  2.729e-04  alpha:  1.907e-01  linmin:  1.740e-05  t[s]:     26.04
	FillingsUpdate:  mu: -0.176550934  nElectrons: 153.000000
	SubspaceRotationAdjust: set factor to 0.113
	SubspaceRotationAdjust: resetting CG because factor has changed by 0.113028
ElecMinimize: 	State modified externally: resetting search direction.
ElecMinimize: Iter:   4  F: -723.971169087548901  |grad|_K:  1.118e-04  alpha:  8.622e-02
	FillingsUpdate:  mu: -0.043355925  nElectrons: 153.000000
	SubspaceRotationAdjust: set factor to 0.219
ElecMinimize: Iter:   5  F: -724.126498251155795  |grad|_K:  2.799e-05  alpha:  2.377e-01  linmin:  3.847e-04  t[s]:     40.43
	FillingsUpdate:  mu: -0.118126334  nElectrons: 153.000000
	SubspaceRotationAdjust: set factor to 0.168
ElecMinimize: Iter:   6  F: -724.137996980557318  |grad|_K:  1.585e-05  alpha:  2.812e-01  linmin:  2.350e-04  t[s]:     45.99
	FillingsUpdate:  mu: -0.062493919  nElectrons: 153.000000

Dumping 'X.fillings' ... done
Dumping 'X.wfns' ... done
Dumping 'X.force' ... done
Dumping 'X.eigenvals' ... done
	SubspaceRotationAdjust: set factor to 0.122
ElecMinimize: Iter:   7  F: -724.141487739025933  |grad|_K:  1.538e-05  alpha:  2.664e-01  linmin:  1.022e-04  t[s]:     52.14
	FillingsUpdate:  mu: -0.119001335  nElectrons: 153.000000
	SubspaceRotationAdjust: set factor to 0.0996
ElecMinimize: Iter:   8  F: -724.147725841197712  |grad|_K:  1.369e-05  alpha:  5.197e-01  linmin:  2.237e-04  t[s]:     57.69
	FillingsUpdate:  mu: -0.097318664  nElectrons: 153.000000
	SubspaceRotationAdjust: set factor to 0.1
ElecMinimize: Iter:   9  F: -724.154177138782075  |grad|_K:  1.411e-05  alpha:  6.940e-01  linmin:  1.252e-04  t[s]:     63.24
	FillingsUpdate:  mu: -0.121927209  nElectrons: 153.000000
	SubspaceRotationAdjust: set factor to 0.0984
ElecMinimize: Iter:  10  F: -724.160080079180375  |grad|_K:  1.122e-05  alpha:  5.737e-01  linmin:  1.268e-04  t[s]:     68.87
	FillingsUpdate:  mu: -0.104579494  nElectrons: 153.000000
	SubspaceRotationAdjust: set factor to 0.0916
ElecMinimize: Iter:  11  F: -724.162462951856128  |grad|_K:  7.284e-06  alpha:  3.683e-01  linmin: -1.017e-05  t[s]:     74.42
	FillingsUpdate:  mu: -0.117856362  nElectrons: 153.000000
	SubspaceRotationAdjust: set factor to 0.0803
ElecMinimize: Iter:  12  F: -724.163605140951290  |grad|_K:  6.209e-06  alpha:  4.115e-01  linmin:  7.643e-05  t[s]:     80.04
	FillingsUpdate:  mu: -0.100018805  nElectrons: 153.000000
	SubspaceRotationAdjust: set factor to 0.0673
ElecMinimize: Iter:  13  F: -724.164404607108168  |grad|_K:  4.526e-06  alpha:  4.006e-01  linmin:  2.195e-05  t[s]:     85.59
	FillingsUpdate:  mu: -0.103435594  nElectrons: 153.000000
	SubspaceRotationAdjust: set factor to 0.068
ElecMinimize: Iter:  14  F: -724.164828754340306  |grad|_K:  3.169e-06  alpha:  3.966e-01  linmin:  1.620e-05  t[s]:     91.22
	FillingsUpdate:  mu: -0.103807299  nElectrons: 153.000000

Dumping 'X.fillings' ... done
Dumping 'X.wfns' ... done
Dumping 'X.force' ... done
Dumping 'X.eigenvals' ... done
	SubspaceRotationAdjust: set factor to 0.0729
ElecMinimize: Iter:  15  F: -724.165063630480176  |grad|_K:  2.525e-06  alpha:  4.477e-01  linmin:  3.472e-06  t[s]:     97.30
	FillingsUpdate:  mu: -0.099104705  nElectrons: 153.000000
	SubspaceRotationAdjust: set factor to 0.0742
ElecMinimize: Iter:  16  F: -724.165207389634361  |grad|_K:  1.909e-06  alpha:  4.309e-01  linmin:  1.254e-06  t[s]:    102.85
	FillingsUpdate:  mu: -0.102228603  nElectrons: 153.000000
	SubspaceRotationAdjust: set factor to 0.0807
ElecMinimize: Iter:  17  F: -724.165292873823319  |grad|_K:  1.656e-06  alpha:  4.481e-01  linmin: -3.565e-06  t[s]:    108.27
	FillingsUpdate:  mu: -0.101165084  nElectrons: 153.000000
	SubspaceRotationAdjust: set factor to 0.0941
ElecMinimize: Iter:  18  F: -724.165372594022074  |grad|_K:  1.562e-06  alpha:  5.555e-01  linmin: -1.985e-06  t[s]:    113.48
	FillingsUpdate:  mu: -0.100132747  nElectrons: 153.000000
	SubspaceRotationAdjust: set factor to 0.11
ElecMinimize: Iter:  19  F: -724.165438224701688  |grad|_K:  1.461e-06  alpha:  5.142e-01  linmin: -1.022e-07  t[s]:    118.73
	FillingsUpdate:  mu: -0.102950401  nElectrons: 153.000000
	SubspaceRotationAdjust: set factor to 0.117
ElecMinimize: Iter:  20  F: -724.165495402626220  |grad|_K:  1.598e-06  alpha:  5.119e-01  linmin: -4.355e-06  t[s]:    124.17
	FillingsUpdate:  mu: -0.098534182  nElectrons: 153.000000
	SubspaceRotationAdjust: set factor to 0.107
ElecMinimize: Iter:  21  F: -724.165552214769946  |grad|_K:  1.681e-06  alpha:  4.254e-01  linmin: -5.859e-06  t[s]:    129.61
	FillingsUpdate:  mu: -0.102842324  nElectrons: 153.000000
	SubspaceRotationAdjust: set factor to 0.0918
ElecMinimize: Iter:  22  F: -724.165602869429790  |grad|_K:  1.460e-06  alpha:  3.426e-01  linmin: -5.389e-06  t[s]:    135.10
	FillingsUpdate:  mu: -0.100541802  nElectrons: 153.000000

Dumping 'X.fillings' ... done
Dumping 'X.wfns' ... done
Dumping 'X.force' ... done
Dumping 'X.eigenvals' ... done
	SubspaceRotationAdjust: set factor to 0.0896
ElecMinimize: Iter:  23  F: -724.165654677241150  |grad|_K:  1.318e-06  alpha:  4.636e-01  linmin: -1.030e-05  t[s]:    141.10
	FillingsUpdate:  mu: -0.100726514  nElectrons: 153.000000
	SubspaceRotationAdjust: set factor to 0.092
ElecMinimize: Iter:  24  F: -724.165701380000996  |grad|_K:  1.139e-06  alpha:  5.131e-01  linmin: -6.046e-06  t[s]:    146.49
	FillingsUpdate:  mu: -0.101799896  nElectrons: 153.000000
	SubspaceRotationAdjust: set factor to 0.0907
ElecMinimize: Iter:  25  F: -724.165731413151434  |grad|_K:  9.481e-07  alpha:  4.419e-01  linmin: -2.373e-06  t[s]:    152.00
	FillingsUpdate:  mu: -0.099985378  nElectrons: 153.000000
	SubspaceRotationAdjust: set factor to 0.0833
ElecMinimize: Iter:  26  F: -724.165751888730370  |grad|_K:  8.436e-07  alpha:  4.352e-01  linmin: -2.625e-06  t[s]:    157.45
	FillingsUpdate:  mu: -0.101715368  nElectrons: 153.000000
	SubspaceRotationAdjust: set factor to 0.0764
ElecMinimize: Iter:  27  F: -724.165766956047037  |grad|_K:  6.750e-07  alpha:  4.045e-01  linmin: -1.854e-06  t[s]:    162.89
	FillingsUpdate:  mu: -0.101100805  nElectrons: 153.000000
	SubspaceRotationAdjust: set factor to 0.0786
ElecMinimize: Iter:  28  F: -724.165777038797273  |grad|_K:  5.481e-07  alpha:  4.228e-01  linmin: -7.477e-07  t[s]:    168.40
	FillingsUpdate:  mu: -0.101066455  nElectrons: 153.000000
	SubspaceRotationAdjust: set factor to 0.0852
ElecMinimize: Iter:  29  F: -724.165784553494291  |grad|_K:  4.936e-07  alpha:  4.778e-01  linmin: -6.210e-06  t[s]:    173.85
	FillingsUpdate:  mu: -0.102000895  nElectrons: 153.000000
	SubspaceRotationAdjust: set factor to 0.0878
ElecMinimize: Iter:  30  F: -724.165790384507659  |grad|_K:  4.419e-07  alpha:  4.571e-01  linmin: -6.034e-06  t[s]:    179.29
	FillingsUpdate:  mu: -0.101125424  nElectrons: 153.000000

Dumping 'X.fillings' ... done
Dumping 'X.wfns' ... done
Dumping 'X.force' ... done
Dumping 'X.eigenvals' ... done
	SubspaceRotationAdjust: set factor to 0.0894
ElecMinimize: Iter:  31  F: -724.165795079873874  |grad|_K:  4.276e-07  alpha:  4.593e-01  linmin: -1.920e-06  t[s]:    185.29
	FillingsUpdate:  mu: -0.101702540  nElectrons: 153.000000
	SubspaceRotationAdjust: set factor to 0.0966
ElecMinimize: Iter:  32  F: -724.165800266268093  |grad|_K:  4.370e-07  alpha:  5.416e-01  linmin: -2.317e-05  t[s]:    190.73
	FillingsUpdate:  mu: -0.101614063  nElectrons: 153.000000
	SubspaceRotationAdjust: set factor to 0.107
ElecMinimize: Iter:  33  F: -724.165805728076407  |grad|_K:  4.386e-07  alpha:  5.458e-01  linmin: -2.034e-05  t[s]:    196.21
	FillingsUpdate:  mu: -0.100855788  nElectrons: 153.000000
	SubspaceRotationAdjust: set factor to 0.111
ElecMinimize: Iter:  34  F: -724.165811639838580  |grad|_K:  5.016e-07  alpha:  5.860e-01  linmin: -2.582e-05  t[s]:    201.68
	FillingsUpdate:  mu: -0.102396287  nElectrons: 153.000000
	SubspaceRotationAdjust: set factor to 0.0976
ElecMinimize: Iter:  35  F: -724.165818478239203  |grad|_K:  6.151e-07  alpha:  5.177e-01  linmin: -1.299e-05  t[s]:    207.13
	FillingsUpdate:  mu: -0.100833013  nElectrons: 153.000000
	SubspaceRotationAdjust: set factor to 0.0833
ElecMinimize: Iter:  36  F: -724.165825651646287  |grad|_K:  5.474e-07  alpha:  3.324e-01  linmin: -1.736e-04  t[s]:    212.58
	FillingsUpdate:  mu: -0.100862815  nElectrons: 153.000000
	SubspaceRotationAdjust: set factor to 0.0944
ElecMinimize: Iter:  37  F: -724.165830887458696  |grad|_K:  4.858e-07  alpha:  3.214e-01  linmin:  7.751e-04  t[s]:    217.97
	FillingsUpdate:  mu: -0.101352499  nElectrons: 153.000000
	SubspaceRotationAdjust: set factor to 0.0977
ElecMinimize: Iter:  38  F: -724.165832712559222  |grad|_K:  4.218e-07  alpha:  1.541e-01  linmin: -3.449e-04  t[s]:    223.31
	FillingsUpdate:  mu: -0.101742856  nElectrons: 153.000000

Dumping 'X.fillings' ... done
Dumping 'X.wfns' ... done
Dumping 'X.force' ... done
Dumping 'X.eigenvals' ... done
	SubspaceRotationAdjust: set factor to 0.104
ElecMinimize: Iter:  39  F: -724.165834306307715  |grad|_K:  3.856e-07  alpha:  1.644e-01  linmin:  2.849e-04  t[s]:    229.41
	FillingsUpdate:  mu: -0.101609647  nElectrons: 153.000000
	SubspaceRotationAdjust: set factor to 0.123
ElecMinimize: Iter:  40  F: -724.165835393524844  |grad|_K:  3.559e-07  alpha:  1.433e-01  linmin:  1.137e-04  t[s]:    234.93
	FillingsUpdate:  mu: -0.101256090  nElectrons: 153.000000
	SubspaceRotationAdjust: set factor to 0.141
ElecMinimize: Iter:  41  F: -724.165836292379254  |grad|_K:  3.479e-07  alpha:  1.370e-01  linmin:  1.003e-04  t[s]:    240.43
	FillingsUpdate:  mu: -0.101120469  nElectrons: 153.000000
	SubspaceRotationAdjust: set factor to 0.179
ElecMinimize: Iter:  42  F: -724.165837197955852  |grad|_K:  3.633e-07  alpha:  1.442e-01  linmin:  9.473e-05  t[s]:    245.94
	FillingsUpdate:  mu: -0.101415304  nElectrons: 153.000000
	SubspaceRotationAdjust: set factor to 0.213
ElecMinimize: Iter:  43  F: -724.165838063291858  |grad|_K:  3.692e-07  alpha:  1.260e-01  linmin:  4.631e-05  t[s]:    251.54
	FillingsUpdate:  mu: -0.101743365  nElectrons: 153.000000
	SubspaceRotationAdjust: set factor to 0.194
ElecMinimize: Iter:  44  F: -724.165838994863520  |grad|_K:  4.288e-07  alpha:  1.310e-01  linmin:  2.552e-05  t[s]:    257.11
	FillingsUpdate:  mu: -0.101476400  nElectrons: 153.000000
	SubspaceRotationAdjust: set factor to 0.213
ElecMinimize: Iter:  45  F: -724.165840086294565  |grad|_K:  4.148e-07  alpha:  1.134e-01  linmin:  3.736e-05  t[s]:    262.66
	FillingsUpdate:  mu: -0.100984823  nElectrons: 153.000000
	SubspaceRotationAdjust: set factor to 0.207
ElecMinimize: Iter:  46  F: -724.165841163453479  |grad|_K:  4.541e-07  alpha:  1.199e-01  linmin:  1.811e-05  t[s]:    268.21
	FillingsUpdate:  mu: -0.101001563  nElectrons: 153.000000

Dumping 'X.fillings' ... done
Dumping 'X.wfns' ... done
Dumping 'X.force' ... done
Dumping 'X.eigenvals' ... done
	SubspaceRotationAdjust: set factor to 0.239
ElecMinimize: Iter:  47  F: -724.165842422270089  |grad|_K:  4.489e-07  alpha:  1.167e-01  linmin:  2.381e-05  t[s]:    274.40
	FillingsUpdate:  mu: -0.101377527  nElectrons: 153.000000
	SubspaceRotationAdjust: set factor to 0.274
ElecMinimize: Iter:  48  F: -724.165843581318427  |grad|_K:  4.770e-07  alpha:  1.101e-01  linmin: -6.382e-06  t[s]:    279.94
	FillingsUpdate:  mu: -0.101278488  nElectrons: 153.000000
	SubspaceRotationAdjust: set factor to 0.341
ElecMinimize: Iter:  49  F: -724.165844943558113  |grad|_K:  4.934e-07  alpha:  1.143e-01  linmin: -5.099e-05  t[s]:    285.52
	FillingsUpdate:  mu: -0.100718979  nElectrons: 153.000000
	SubspaceRotationAdjust: set factor to 0.415
ElecMinimize: Iter:  50  F: -724.165846135777201  |grad|_K:  5.117e-07  alpha:  9.345e-02  linmin: -3.514e-05  t[s]:    291.09
	FillingsUpdate:  mu: -0.100791811  nElectrons: 153.000000
	SubspaceRotationAdjust: set factor to 0.563
ElecMinimize: Iter:  51  F: -724.165847500384075  |grad|_K:  5.006e-07  alpha:  9.917e-02  linmin: -9.871e-05  t[s]:    296.75
	FillingsUpdate:  mu: -0.101342910  nElectrons: 153.000000
	SubspaceRotationAdjust: set factor to 0.622
ElecMinimize: Iter:  52  F: -724.165848629643733  |grad|_K:  5.604e-07  alpha:  8.551e-02  linmin: -5.086e-05  t[s]:    302.31
	FillingsUpdate:  mu: -0.100884076  nElectrons: 153.000000
	SubspaceRotationAdjust: set factor to 0.663
ElecMinimize: Iter:  53  F: -724.165849710954603  |grad|_K:  4.932e-07  alpha:  6.566e-02  linmin: -3.465e-05  t[s]:    307.87
	FillingsUpdate:  mu: -0.101177986  nElectrons: 153.000000
	SubspaceRotationAdjust: set factor to 0.755
ElecMinimize: Iter:  54  F: -724.165850958407646  |grad|_K:  4.535e-07  alpha:  9.596e-02  linmin: -1.633e-04  t[s]:    313.41
	FillingsUpdate:  mu: -0.101441976  nElectrons: 153.000000

Dumping 'X.fillings' ... done
Dumping 'X.wfns' ... done
Dumping 'X.force' ... done
Dumping 'X.eigenvals' ... done
	SubspaceRotationAdjust: set factor to 0.799
ElecMinimize: Iter:  55  F: -724.165852321064108  |grad|_K:  4.565e-07  alpha:  1.209e-01  linmin: -1.582e-04  t[s]:    319.57
	FillingsUpdate:  mu: -0.100819715  nElectrons: 153.000000
	SubspaceRotationAdjust: set factor to 0.67
ElecMinimize: Iter:  56  F: -724.165853382217733  |grad|_K:  6.522e-07  alpha:  9.434e-02  linmin: -3.424e-05  t[s]:    325.12
	FillingsUpdate:  mu: -0.101613115  nElectrons: 153.000000
	SubspaceRotationAdjust: set factor to 0.474
ElecMinimize: Iter:  57  F: -724.165854297345732  |grad|_K:  4.766e-07  alpha:  4.180e-02  linmin:  5.664e-05  t[s]:    330.68
ElecMinimize: 	Predicted alpha/alphaT>3.000000, increasing alphaT to 1.253905e-01.
	FillingsUpdate:  mu: -0.101263816  nElectrons: 153.000000
	SubspaceRotationAdjust: set factor to 0.489
ElecMinimize: Iter:  58  F: -724.165855957341023  |grad|_K:  4.428e-07  alpha:  1.409e-01  linmin: -1.251e-04  t[s]:    337.86
	FillingsUpdate:  mu: -0.101237971  nElectrons: 153.000000
	SubspaceRotationAdjust: set factor to 0.52
ElecMinimize: Iter:  59  F: -724.165858014909873  |grad|_K:  4.461e-07  alpha:  1.945e-01  linmin: -1.278e-04  t[s]:    343.50
	FillingsUpdate:  mu: -0.100856603  nElectrons: 153.000000
	SubspaceRotationAdjust: set factor to 0.56
ElecMinimize: Iter:  60  F: -724.165860150802018  |grad|_K:  4.809e-07  alpha:  2.008e-01  linmin: -4.281e-05  t[s]:    349.07
	FillingsUpdate:  mu: -0.101661254  nElectrons: 153.000000
	SubspaceRotationAdjust: set factor to 0.462
ElecMinimize: Iter:  61  F: -724.165861759556606  |grad|_K:  6.840e-07  alpha:  1.320e-01  linmin: -1.334e-05  t[s]:    354.63
	FillingsUpdate:  mu: -0.100753498  nElectrons: 153.000000
	SubspaceRotationAdjust: set factor to 0.377
ElecMinimize: Iter:  62  F: -724.165863217340643  |grad|_K:  5.131e-07  alpha:  5.946e-02  linmin: -1.422e-05  t[s]:    360.19
	FillingsUpdate:  mu: -0.100940860  nElectrons: 153.000000

Dumping 'X.fillings' ... done
Dumping 'X.wfns' ... done
Dumping 'X.force' ... done
Dumping 'X.eigenvals' ... done
	SubspaceRotationAdjust: set factor to 0.469
ElecMinimize: Iter:  63  F: -724.165865593781973  |grad|_K:  4.847e-07  alpha:  1.726e-01  linmin:  2.921e-05  t[s]:    366.54
	FillingsUpdate:  mu: -0.101775947  nElectrons: 153.000000
	SubspaceRotationAdjust: set factor to 0.458
ElecMinimize: Iter:  64  F: -724.165867396014050  |grad|_K:  6.266e-07  alpha:  1.469e-01  linmin:  3.928e-06  t[s]:    372.11
	FillingsUpdate:  mu: -0.100955220  nElectrons: 153.000000
	SubspaceRotationAdjust: set factor to 0.377
ElecMinimize: Iter:  65  F: -724.165868795902838  |grad|_K:  5.144e-07  alpha:  6.802e-02  linmin: -1.327e-05  t[s]:    377.67
	FillingsUpdate:  mu: -0.101286703  nElectrons: 153.000000
	SubspaceRotationAdjust: set factor to 0.428
ElecMinimize: Iter:  66  F: -724.165870946917948  |grad|_K:  4.630e-07  alpha:  1.551e-01  linmin:  1.421e-05  t[s]:    383.23
	FillingsUpdate:  mu: -0.101786775  nElectrons: 153.000000
	SubspaceRotationAdjust: set factor to 0.437
ElecMinimize: Iter:  67  F: -724.165872822114466  |grad|_K:  5.138e-07  alpha:  1.676e-01  linmin:  1.910e-05  t[s]:    388.70
	FillingsUpdate:  mu: -0.101016506  nElectrons: 153.000000
	SubspaceRotationAdjust: set factor to 0.347
ElecMinimize: Iter:  68  F: -724.165873962178466  |grad|_K:  5.161e-07  alpha:  8.254e-02  linmin: -9.239e-06  t[s]:    394.25
	FillingsUpdate:  mu: -0.101570733  nElectrons: 153.000000
	SubspaceRotationAdjust: set factor to 0.332
ElecMinimize: Iter:  69  F: -724.165875552116631  |grad|_K:  4.252e-07  alpha:  1.143e-01  linmin:  2.700e-05  t[s]:    399.80
	FillingsUpdate:  mu: -0.101774961  nElectrons: 153.000000
	SubspaceRotationAdjust: set factor to 0.353
ElecMinimize: Iter:  70  F: -724.165877162246716  |grad|_K:  4.291e-07  alpha:  1.719e-01  linmin:  4.969e-05  t[s]:    405.37
	FillingsUpdate:  mu: -0.101186028  nElectrons: 153.000000

Dumping 'X.fillings' ... done
Dumping 'X.wfns' ... done
Dumping 'X.force' ... done
Dumping 'X.eigenvals' ... done
	SubspaceRotationAdjust: set factor to 0.314
ElecMinimize: Iter:  71  F: -724.165878327702103  |grad|_K:  4.586e-07  alpha:  1.221e-01  linmin: -2.765e-06  t[s]:    411.56
	FillingsUpdate:  mu: -0.101739949  nElectrons: 153.000000
	SubspaceRotationAdjust: set factor to 0.288
ElecMinimize: Iter:  72  F: -724.165879543074993  |grad|_K:  3.977e-07  alpha:  1.103e-01  linmin:  6.400e-06  t[s]:    417.13
	FillingsUpdate:  mu: -0.101753016  nElectrons: 153.000000
	SubspaceRotationAdjust: set factor to 0.316
ElecMinimize: Iter:  73  F: -724.165880917348318  |grad|_K:  3.898e-07  alpha:  1.667e-01  linmin:  2.612e-05  t[s]:    422.69
	FillingsUpdate:  mu: -0.101288463  nElectrons: 153.000000
	SubspaceRotationAdjust: set factor to 0.304
ElecMinimize: Iter:  74  F: -724.165882055977818  |grad|_K:  4.188e-07  alpha:  1.439e-01  linmin:  7.477e-06  t[s]:    428.25
	FillingsUpdate:  mu: -0.101794650  nElectrons: 153.000000
	SubspaceRotationAdjust: set factor to 0.287
ElecMinimize: Iter:  75  F: -724.165883120108560  |grad|_K:  3.798e-07  alpha:  1.161e-01  linmin:  2.419e-06  t[s]:    433.84
	FillingsUpdate:  mu: -0.101700506  nElectrons: 153.000000
	SubspaceRotationAdjust: set factor to 0.32
ElecMinimize: Iter:  76  F: -724.165884310819251  |grad|_K:  3.627e-07  alpha:  1.581e-01  linmin:  2.511e-05  t[s]:    439.45
	FillingsUpdate:  mu: -0.101302533  nElectrons: 153.000000
	SubspaceRotationAdjust: set factor to 0.326
ElecMinimize: Iter:  77  F: -724.165885340769023  |grad|_K:  3.893e-07  alpha:  1.503e-01  linmin:  2.382e-05  t[s]:    445.06
	FillingsUpdate:  mu: -0.101738706  nElectrons: 153.000000
	SubspaceRotationAdjust: set factor to 0.307
ElecMinimize: Iter:  78  F: -724.165886235098242  |grad|_K:  3.672e-07  alpha:  1.131e-01  linmin:  1.259e-05  t[s]:    450.61
	FillingsUpdate:  mu: -0.101509810  nElectrons: 153.000000

Dumping 'X.fillings' ... done
Dumping 'X.wfns' ... done
Dumping 'X.force' ... done
Dumping 'X.eigenvals' ... done
	SubspaceRotationAdjust: set factor to 0.336
ElecMinimize: Iter:  79  F: -724.165887233306876  |grad|_K:  3.413e-07  alpha:  1.420e-01  linmin:  4.910e-05  t[s]:    456.38
	FillingsUpdate:  mu: -0.101235019  nElectrons: 153.000000
	SubspaceRotationAdjust: set factor to 0.354
ElecMinimize: Iter:  80  F: -724.165888142910376  |grad|_K:  3.569e-07  alpha:  1.501e-01  linmin:  2.153e-05  t[s]:    461.60
	FillingsUpdate:  mu: -0.101656855  nElectrons: 153.000000
	SubspaceRotationAdjust: set factor to 0.331
ElecMinimize: Iter:  81  F: -724.165888896263368  |grad|_K:  3.566e-07  alpha:  1.133e-01  linmin:  1.200e-05  t[s]:    466.98
	FillingsUpdate:  mu: -0.101356165  nElectrons: 153.000000
	SubspaceRotationAdjust: set factor to 0.343
ElecMinimize: Iter:  82  F: -724.165889706107237  |grad|_K:  3.244e-07  alpha:  1.219e-01  linmin: -7.116e-06  t[s]:    472.42
	FillingsUpdate:  mu: -0.101310489  nElectrons: 153.000000
	SubspaceRotationAdjust: set factor to 0.382
ElecMinimize: Iter:  83  F: -724.165890541900922  |grad|_K:  3.221e-07  alpha:  1.519e-01  linmin:  1.769e-05  t[s]:    477.86
	FillingsUpdate:  mu: -0.101649427  nElectrons: 153.000000
	SubspaceRotationAdjust: set factor to 0.386
ElecMinimize: Iter:  84  F: -724.165891248840694  |grad|_K:  3.447e-07  alpha:  1.308e-01  linmin: -7.343e-06  t[s]:    483.31
	FillingsUpdate:  mu: -0.101216024  nElectrons: 153.000000
	SubspaceRotationAdjust: set factor to 0.371
ElecMinimize: Iter:  85  F: -724.165891889559362  |grad|_K:  3.245e-07  alpha:  1.032e-01  linmin:  7.481e-06  t[s]:    488.75
	FillingsUpdate:  mu: -0.101406676  nElectrons: 153.000000
	SubspaceRotationAdjust: set factor to 0.414
ElecMinimize: Iter:  86  F: -724.165892586160226  |grad|_K:  2.945e-07  alpha:  1.270e-01  linmin:  1.287e-05  t[s]:    494.28
	FillingsUpdate:  mu: -0.101376957  nElectrons: 153.000000

Dumping 'X.fillings' ... done
Dumping 'X.wfns' ... done
Dumping 'X.force' ... done
Dumping 'X.eigenvals' ... done
	SubspaceRotationAdjust: set factor to 0.482
ElecMinimize: Iter:  87  F: -724.165893257472703  |grad|_K:  2.860e-07  alpha:  1.481e-01  linmin:  1.346e-06  t[s]:    500.33
	FillingsUpdate:  mu: -0.101084145  nElectrons: 153.000000
	SubspaceRotationAdjust: set factor to 0.517
ElecMinimize: Iter:  88  F: -724.165893834611097  |grad|_K:  3.068e-07  alpha:  1.348e-01  linmin: -1.383e-05  t[s]:    505.78
	FillingsUpdate:  mu: -0.101476327  nElectrons: 153.000000
	SubspaceRotationAdjust: set factor to 0.465
ElecMinimize: Iter:  89  F: -724.165894255522062  |grad|_K:  3.182e-07  alpha:  8.512e-02  linmin:  2.335e-07  t[s]:    511.22
	FillingsUpdate:  mu: -0.101096993  nElectrons: 153.000000
	SubspaceRotationAdjust: set factor to 0.438
ElecMinimize: Iter:  90  F: -724.165894707726807  |grad|_K:  2.687e-07  alpha:  8.530e-02  linmin:  1.720e-06  t[s]:    516.66
	FillingsUpdate:  mu: -0.101210433  nElectrons: 153.000000
	SubspaceRotationAdjust: set factor to 0.473
ElecMinimize: Iter:  91  F: -724.165895192688822  |grad|_K:  2.462e-07  alpha:  1.285e-01  linmin:  8.573e-06  t[s]:    522.10
	FillingsUpdate:  mu: -0.101186646  nElectrons: 153.000000
	SubspaceRotationAdjust: set factor to 0.508
ElecMinimize: Iter:  92  F: -724.165895638677512  |grad|_K:  2.354e-07  alpha:  1.412e-01  linmin:  1.908e-05  t[s]:    527.57
	FillingsUpdate:  mu: -0.101126370  nElectrons: 153.000000
	SubspaceRotationAdjust: set factor to 0.53
ElecMinimize: Iter:  93  F: -724.165896031741454  |grad|_K:  2.307e-07  alpha:  1.359e-01  linmin:  1.257e-05  t[s]:    533.02
	FillingsUpdate:  mu: -0.101386417  nElectrons: 153.000000
	SubspaceRotationAdjust: set factor to 0.502
ElecMinimize: Iter:  94  F: -724.165896347536886  |grad|_K:  2.505e-07  alpha:  1.138e-01  linmin:  8.586e-06  t[s]:    538.47
	FillingsUpdate:  mu: -0.101086448  nElectrons: 153.000000

Dumping 'X.fillings' ... done
Dumping 'X.wfns' ... done
Dumping 'X.force' ... done
Dumping 'X.eigenvals' ... done
	SubspaceRotationAdjust: set factor to 0.416
ElecMinimize: Iter:  95  F: -724.165896583970948  |grad|_K:  2.414e-07  alpha:  7.181e-02  linmin: -4.497e-08  t[s]:    544.45
	FillingsUpdate:  mu: -0.101288218  nElectrons: 153.000000
	SubspaceRotationAdjust: set factor to 0.427
ElecMinimize: Iter:  96  F: -724.165896880549667  |grad|_K:  2.129e-07  alpha:  9.698e-02  linmin: -8.449e-06  t[s]:    549.91
	FillingsUpdate:  mu: -0.101387301  nElectrons: 153.000000
	SubspaceRotationAdjust: set factor to 0.472
ElecMinimize: Iter:  97  F: -724.165897189048678  |grad|_K:  2.246e-07  alpha:  1.305e-01  linmin:  3.246e-05  t[s]:    555.38
	FillingsUpdate:  mu: -0.101130932  nElectrons: 153.000000
	SubspaceRotationAdjust: set factor to 0.46
ElecMinimize: Iter:  98  F: -724.165897440780441  |grad|_K:  2.464e-07  alpha:  9.550e-02  linmin: -6.237e-07  t[s]:    560.83
	FillingsUpdate:  mu: -0.101382366  nElectrons: 153.000000
	SubspaceRotationAdjust: set factor to 0.486
ElecMinimize: Iter:  99  F: -724.165897725593595  |grad|_K:  2.300e-07  alpha:  8.949e-02  linmin:  7.674e-06  t[s]:    566.06
	FillingsUpdate:  mu: -0.101366810  nElectrons: 153.000000
	SubspaceRotationAdjust: set factor to 0.595
ElecMinimize: Iter: 100  F: -724.165898073268863  |grad|_K:  2.368e-07  alpha:  1.260e-01  linmin:  2.968e-06  t[s]:    571.54
	FillingsUpdate:  mu: -0.101171791  nElectrons: 153.000000
	SubspaceRotationAdjust: set factor to 0.67
ElecMinimize: Iter: 101  F: -724.165898422158534  |grad|_K:  2.817e-07  alpha:  1.191e-01  linmin:  6.496e-06  t[s]:    576.82
	FillingsUpdate:  mu: -0.101530909  nElectrons: 153.000000
	SubspaceRotationAdjust: set factor to 0.648
ElecMinimize: Iter: 102  F: -724.165898700722209  |grad|_K:  3.032e-07  alpha:  6.728e-02  linmin:  6.686e-07  t[s]:    582.33
	FillingsUpdate:  mu: -0.101244238  nElectrons: 153.000000

Dumping 'X.fillings' ... done
Dumping 'X.wfns' ... done
Dumping 'X.force' ... done
Dumping 'X.eigenvals' ... done
	SubspaceRotationAdjust: set factor to 0.701
ElecMinimize: Iter: 103  F: -724.165899064660039  |grad|_K:  2.740e-07  alpha:  7.558e-02  linmin: -8.490e-06  t[s]:    588.56
	FillingsUpdate:  mu: -0.101405768  nElectrons: 153.000000
	SubspaceRotationAdjust: set factor to 0.802
ElecMinimize: Iter: 104  F: -724.165899492114249  |grad|_K:  2.745e-07  alpha:  1.080e-01  linmin: -2.534e-05  t[s]:    594.10
	FillingsUpdate:  mu: -0.101140348  nElectrons: 153.000000
	SubspaceRotationAdjust: set factor to 0.818
ElecMinimize: Iter: 105  F: -724.165899898602106  |grad|_K:  3.183e-07  alpha:  1.019e-01  linmin: -6.393e-06  t[s]:    599.69
	FillingsUpdate:  mu: -0.101558199  nElectrons: 153.000000
	SubspaceRotationAdjust: set factor to 0.665
ElecMinimize: Iter: 106  F: -724.165900154572000  |grad|_K:  3.287e-07  alpha:  4.846e-02  linmin:  5.837e-06  t[s]:    605.24
	FillingsUpdate:  mu: -0.101268328  nElectrons: 153.000000
	SubspaceRotationAdjust: set factor to 0.587
ElecMinimize: Iter: 107  F: -724.165900527518488  |grad|_K:  2.700e-07  alpha:  6.568e-02  linmin: -3.609e-05  t[s]:    610.79
	FillingsUpdate:  mu: -0.101487530  nElectrons: 153.000000
	SubspaceRotationAdjust: set factor to 0.564
ElecMinimize: Iter: 108  F: -724.165900978315335  |grad|_K:  2.689e-07  alpha:  1.158e-01  linmin: -5.697e-05  t[s]:    616.37
	FillingsUpdate:  mu: -0.101183295  nElectrons: 153.000000
	SubspaceRotationAdjust: set factor to 0.502
ElecMinimize: Iter: 109  F: -724.165901405171326  |grad|_K:  3.124e-07  alpha:  1.106e-01  linmin: -9.347e-06  t[s]:    622.02
	FillingsUpdate:  mu: -0.101613468  nElectrons: 153.000000
	SubspaceRotationAdjust: set factor to 0.398
ElecMinimize: Iter: 110  F: -724.165901763568172  |grad|_K:  2.999e-07  alpha:  7.012e-02  linmin: -9.307e-06  t[s]:    627.57
	FillingsUpdate:  mu: -0.101430582  nElectrons: 153.000000

Dumping 'X.fillings' ... done
Dumping 'X.wfns' ... done
Dumping 'X.force' ... done
Dumping 'X.eigenvals' ... done
	SubspaceRotationAdjust: set factor to 0.402
ElecMinimize: Iter: 111  F: -724.165902290928329  |grad|_K:  2.837e-07  alpha:  1.139e-01  linmin:  9.767e-05  t[s]:    633.68
	FillingsUpdate:  mu: -0.101365178  nElectrons: 153.000000
	SubspaceRotationAdjust: set factor to 0.437
ElecMinimize: Iter: 112  F: -724.165902805919700  |grad|_K:  3.085e-07  alpha:  1.265e-01  linmin:  7.297e-05  t[s]:    639.23
	FillingsUpdate:  mu: -0.101648409  nElectrons: 153.000000
	SubspaceRotationAdjust: set factor to 0.453
ElecMinimize: Iter: 113  F: -724.165903225523721  |grad|_K:  3.193e-07  alpha:  8.301e-02  linmin: -4.347e-05  t[s]:    644.85
	FillingsUpdate:  mu: -0.101585121  nElectrons: 153.000000
	SubspaceRotationAdjust: set factor to 0.545
ElecMinimize: Iter: 114  F: -724.165903653222472  |grad|_K:  3.196e-07  alpha:  7.872e-02  linmin:  1.108e-04  t[s]:    650.48
	FillingsUpdate:  mu: -0.101438498  nElectrons: 153.000000
	SubspaceRotationAdjust: set factor to 0.649
ElecMinimize: Iter: 115  F: -724.165903960826995  |grad|_K:  3.434e-07  alpha:  5.835e-02  linmin: -1.309e-05  t[s]:    656.03
	FillingsUpdate:  mu: -0.101521293  nElectrons: 153.000000
	SubspaceRotationAdjust: set factor to 0.865
	SubspaceRotationAdjust: resetting CG because factor has changed by 7.65629
ElecMinimize: 	State modified externally: resetting search direction.
ElecMinimize: Iter: 116  F: -724.165904266456550  |grad|_K:  3.756e-07  alpha:  4.864e-02
ElecMinimize: 	Predicted alpha/alphaT>3.000000, increasing alphaT to 1.459172e-01.
ElecMinimize: 	Predicted alpha/alphaT>3.000000, increasing alphaT to 4.377515e-01.
	FillingsUpdate:  mu: -0.103099614  nElectrons: 153.000000
	SubspaceRotationAdjust: set factor to 0.451
ElecMinimize: Iter: 117  F: -724.165909516272563  |grad|_K:  1.488e-06  alpha:  7.020e-01  linmin: -3.996e-04  t[s]:    673.72
	FillingsUpdate:  mu: -0.101871401  nElectrons: 153.000000
	SubspaceRotationAdjust: set factor to 0.798
ElecMinimize: Iter: 118  F: -724.165912259175116  |grad|_K:  4.258e-07  alpha:  1.774e-02  linmin: -3.614e-03  t[s]:    679.28
ElecMinimize: 	Predicted alpha/alphaT>3.000000, increasing alphaT to 5.320969e-02.
	FillingsUpdate:  mu: -0.100904673  nElectrons: 153.000000

Dumping 'X.fillings' ... done
Dumping 'X.wfns' ... done
Dumping 'X.force' ... done
Dumping 'X.eigenvals' ... done
	SubspaceRotationAdjust: set factor to 0.519
ElecMinimize: Iter: 119  F: -724.165912950306961  |grad|_K:  6.527e-07  alpha:  5.582e-02  linmin:  6.872e-05  t[s]:    687.04
	FillingsUpdate:  mu: -0.100680406  nElectrons: 153.000000
	SubspaceRotationAdjust: set factor to 0.319
ElecMinimize: Iter: 120  F: -724.165915548939438  |grad|_K:  6.308e-07  alpha:  1.171e-01  linmin: -2.692e-05  t[s]:    692.65
	FillingsUpdate:  mu: -0.101513603  nElectrons: 153.000000
	SubspaceRotationAdjust: set factor to 0.245
ElecMinimize: Iter: 121  F: -724.165916136567148  |grad|_K:  3.178e-07  alpha:  2.823e-02  linmin:  8.981e-06  t[s]:    698.20
ElecMinimize: 	Predicted alpha/alphaT>3.000000, increasing alphaT to 8.468990e-02.
	FillingsUpdate:  mu: -0.102331533  nElectrons: 153.000000
	SubspaceRotationAdjust: set factor to 0.149
ElecMinimize: Iter: 122  F: -724.165916894230349  |grad|_K:  5.083e-07  alpha:  1.437e-01  linmin:  2.469e-05  t[s]:    705.40
	FillingsUpdate:  mu: -0.102011221  nElectrons: 153.000000
	SubspaceRotationAdjust: set factor to 0.171
ElecMinimize: Iter: 123  F: -724.165918360138335  |grad|_K:  3.811e-07  alpha:  1.086e-01  linmin:  1.454e-06  t[s]:    710.95
	FillingsUpdate:  mu: -0.101022186  nElectrons: 153.000000
	SubspaceRotationAdjust: set factor to 0.134
ElecMinimize: Iter: 124  F: -724.165919201365682  |grad|_K:  3.484e-07  alpha:  1.106e-01  linmin:  6.887e-06  t[s]:    716.59
	FillingsUpdate:  mu: -0.100484003  nElectrons: 153.000000
	SubspaceRotationAdjust: set factor to 0.0877
	SubspaceRotationAdjust: resetting CG because factor has changed by 0.101322
ElecMinimize: 	State modified externally: resetting search direction.
ElecMinimize: Iter: 125  F: -724.165920536871226  |grad|_K:  3.378e-07  alpha:  2.102e-01
	FillingsUpdate:  mu: -0.101607946  nElectrons: 153.000000
	SubspaceRotationAdjust: set factor to 0.0594
ElecMinimize: Iter: 126  F: -724.165921582357214  |grad|_K:  1.449e-07  alpha:  1.751e-01  linmin:  2.344e-05  t[s]:    730.92
ElecMinimize: 	Predicted alpha/alphaT>3.000000, increasing alphaT to 5.253193e-01.
	FillingsUpdate:  mu: -0.101273797  nElectrons: 153.000000

Dumping 'X.fillings' ... done
Dumping 'X.wfns' ... done
Dumping 'X.force' ... done
Dumping 'X.eigenvals' ... done
	SubspaceRotationAdjust: set factor to 0.0586
ElecMinimize: Iter: 127  F: -724.165922652768245  |grad|_K:  2.357e-07  alpha:  9.739e-01  linmin: -4.285e-05  t[s]:    738.77
	FillingsUpdate:  mu: -0.101289368  nElectrons: 153.000000
	SubspaceRotationAdjust: set factor to 0.0606
ElecMinimize: Iter: 128  F: -724.165925415406150  |grad|_K:  2.928e-07  alpha:  9.491e-01  linmin: -1.590e-05  t[s]:    744.33
	FillingsUpdate:  mu: -0.101786208  nElectrons: 153.000000
	SubspaceRotationAdjust: set factor to 0.0588
ElecMinimize: Iter: 129  F: -724.165928373611337  |grad|_K:  2.998e-07  alpha:  6.585e-01  linmin: -1.394e-05  t[s]:    749.88
	FillingsUpdate:  mu: -0.101317026  nElectrons: 153.000000
	SubspaceRotationAdjust: set factor to 0.0586
ElecMinimize: Iter: 130  F: -724.165930287896231  |grad|_K:  2.409e-07  alpha:  4.064e-01  linmin: -1.110e-05  t[s]:    755.42
	FillingsUpdate:  mu: -0.100999263  nElectrons: 153.000000
	SubspaceRotationAdjust: set factor to 0.06
ElecMinimize: Iter: 131  F: -724.165932625585697  |grad|_K:  2.461e-07  alpha:  7.696e-01  linmin:  4.092e-05  t[s]:    761.05
	FillingsUpdate:  mu: -0.101417200  nElectrons: 153.000000
	SubspaceRotationAdjust: set factor to 0.0562
ElecMinimize: Iter: 132  F: -724.165934256133028  |grad|_K:  1.869e-07  alpha:  5.146e-01  linmin:  4.792e-06  t[s]:    766.61
	FillingsUpdate:  mu: -0.101130666  nElectrons: 153.000000
	SubspaceRotationAdjust: set factor to 0.0564
ElecMinimize: Iter: 133  F: -724.165935222193525  |grad|_K:  1.609e-07  alpha:  5.289e-01  linmin:  2.231e-05  t[s]:    772.17
	FillingsUpdate:  mu: -0.101226114  nElectrons: 153.000000
	SubspaceRotationAdjust: set factor to 0.0605
ElecMinimize: Iter: 134  F: -724.165935841002465  |grad|_K:  1.453e-07  alpha:  4.568e-01  linmin:  1.070e-05  t[s]:    777.71
	FillingsUpdate:  mu: -0.101549080  nElectrons: 153.000000

Dumping 'X.fillings' ... done
Dumping 'X.wfns' ... done
Dumping 'X.force' ... done
Dumping 'X.eigenvals' ... done
	SubspaceRotationAdjust: set factor to 0.0616
ElecMinimize: Iter: 135  F: -724.165936700141629  |grad|_K:  1.691e-07  alpha:  7.792e-01  linmin:  4.010e-05  t[s]:    783.93
	FillingsUpdate:  mu: -0.101323914  nElectrons: 153.000000
	SubspaceRotationAdjust: set factor to 0.0619
ElecMinimize: Iter: 136  F: -724.165937582252809  |grad|_K:  1.691e-07  alpha:  5.912e-01  linmin:  2.445e-05  t[s]:    789.49
	FillingsUpdate:  mu: -0.101559834  nElectrons: 153.000000
	SubspaceRotationAdjust: set factor to 0.064
ElecMinimize: Iter: 137  F: -724.165938648963106  |grad|_K:  1.813e-07  alpha:  7.144e-01  linmin:  3.805e-05  t[s]:    795.09
	FillingsUpdate:  mu: -0.101395868  nElectrons: 153.000000
	SubspaceRotationAdjust: set factor to 0.0662
ElecMinimize: Iter: 138  F: -724.165939804029563  |grad|_K:  2.051e-07  alpha:  6.736e-01  linmin:  2.721e-05  t[s]:    800.49
	FillingsUpdate:  mu: -0.101302420  nElectrons: 153.000000
	SubspaceRotationAdjust: set factor to 0.0699
ElecMinimize: Iter: 139  F: -724.165941116039789  |grad|_K:  2.107e-07  alpha:  5.982e-01  linmin:  4.782e-05  t[s]:    805.71
	FillingsUpdate:  mu: -0.101520526  nElectrons: 153.000000
	SubspaceRotationAdjust: set factor to 0.0747
ElecMinimize: Iter: 140  F: -724.165942442283608  |grad|_K:  2.200e-07  alpha:  5.742e-01  linmin:  6.808e-05  t[s]:    810.93
	FillingsUpdate:  mu: -0.101179689  nElectrons: 153.000000
	SubspaceRotationAdjust: set factor to 0.0781
ElecMinimize: Iter: 141  F: -724.165944165634755  |grad|_K:  2.473e-07  alpha:  6.929e-01  linmin:  2.756e-04  t[s]:    816.34
	FillingsUpdate:  mu: -0.101561706  nElectrons: 153.000000
	SubspaceRotationAdjust: set factor to 0.0856
ElecMinimize: Iter: 142  F: -724.165945819648755  |grad|_K:  2.342e-07  alpha:  5.005e-01  linmin:  1.921e-04  t[s]:    821.79
	FillingsUpdate:  mu: -0.101542031  nElectrons: 153.000000

Dumping 'X.fillings' ... done
Dumping 'X.wfns' ... done
Dumping 'X.force' ... done
Dumping 'X.eigenvals' ... done
	SubspaceRotationAdjust: set factor to 0.106
ElecMinimize: Iter: 143  F: -724.165946712588493  |grad|_K:  1.930e-07  alpha:  2.901e-01  linmin: -2.294e-04  t[s]:    827.79
	FillingsUpdate:  mu: -0.101352750  nElectrons: 153.000000
	SubspaceRotationAdjust: set factor to 0.13
ElecMinimize: Iter: 144  F: -724.165947212447463  |grad|_K:  1.760e-07  alpha:  2.459e-01  linmin:  2.679e-04  t[s]:    833.23
	FillingsUpdate:  mu: -0.101328905  nElectrons: 153.000000
	SubspaceRotationAdjust: set factor to 0.17
ElecMinimize: Iter: 145  F: -724.165947556193714  |grad|_K:  1.731e-07  alpha:  2.173e-01  linmin:  2.332e-04  t[s]:    838.67
	FillingsUpdate:  mu: -0.101418154  nElectrons: 153.000000
	SubspaceRotationAdjust: set factor to 0.219
ElecMinimize: Iter: 146  F: -724.165947826159254  |grad|_K:  1.751e-07  alpha:  1.750e-01  linmin:  1.158e-04  t[s]:    844.13
	FillingsUpdate:  mu: -0.101393785  nElectrons: 153.000000
	SubspaceRotationAdjust: set factor to 0.252
ElecMinimize: Iter: 147  F: -724.165948069450451  |grad|_K:  1.801e-07  alpha:  1.526e-01  linmin:  1.237e-04  t[s]:    849.57
	FillingsUpdate:  mu: -0.101297897  nElectrons: 153.000000
	SubspaceRotationAdjust: set factor to 0.266
ElecMinimize: Iter: 148  F: -724.165948276405629  |grad|_K:  1.848e-07  alpha:  1.231e-01  linmin:  6.021e-05  t[s]:    855.07
	FillingsUpdate:  mu: -0.101356368  nElectrons: 153.000000
	SubspaceRotationAdjust: set factor to 0.285
ElecMinimize: Iter: 149  F: -724.165948477232746  |grad|_K:  1.848e-07  alpha:  1.133e-01  linmin:  9.268e-05  t[s]:    860.52
	FillingsUpdate:  mu: -0.101472161  nElectrons: 153.000000
	SubspaceRotationAdjust: set factor to 0.286
ElecMinimize: Iter: 150  F: -724.165948663013523  |grad|_K:  1.918e-07  alpha:  1.054e-01  linmin:  7.621e-06  t[s]:    865.96
	FillingsUpdate:  mu: -0.101434913  nElectrons: 153.000000

Dumping 'X.fillings' ... done
Dumping 'X.wfns' ... done
Dumping 'X.force' ... done
Dumping 'X.eigenvals' ... done
	SubspaceRotationAdjust: set factor to 0.289
ElecMinimize: Iter: 151  F: -724.165948859100126  |grad|_K:  1.915e-07  alpha:  1.024e-01  linmin:  4.708e-05  t[s]:    871.99
	FillingsUpdate:  mu: -0.101341938  nElectrons: 153.000000
	SubspaceRotationAdjust: set factor to 0.276
ElecMinimize: Iter: 152  F: -724.165949055555075  |grad|_K:  1.983e-07  alpha:  1.033e-01  linmin:  7.690e-05  t[s]:    877.44
	FillingsUpdate:  mu: -0.101373444  nElectrons: 153.000000
	SubspaceRotationAdjust: set factor to 0.284
ElecMinimize: Iter: 153  F: -724.165949252192490  |grad|_K:  1.972e-07  alpha:  9.727e-02  linmin:  1.333e-05  t[s]:    882.89
	FillingsUpdate:  mu: -0.101393686  nElectrons: 153.000000
	SubspaceRotationAdjust: set factor to 0.284
ElecMinimize: Iter: 154  F: -724.165949456808107  |grad|_K:  2.067e-07  alpha:  1.010e-01  linmin:  8.756e-05  t[s]:    888.41
	FillingsUpdate:  mu: -0.101286417  nElectrons: 153.000000
	SubspaceRotationAdjust: set factor to 0.293
ElecMinimize: Iter: 155  F: -724.165949640225676  |grad|_K:  2.057e-07  alpha:  8.300e-02  linmin:  3.515e-05  t[s]:    893.86
	FillingsUpdate:  mu: -0.101197989  nElectrons: 153.000000
	SubspaceRotationAdjust: set factor to 0.283
ElecMinimize: Iter: 156  F: -724.165949803179956  |grad|_K:  2.091e-07  alpha:  7.345e-02  linmin:  3.891e-05  t[s]:    899.31
	FillingsUpdate:  mu: -0.101219750  nElectrons: 153.000000
	SubspaceRotationAdjust: set factor to 0.275
ElecMinimize: Iter: 157  F: -724.165949941585268  |grad|_K:  2.038e-07  alpha:  6.090e-02  linmin:  5.469e-05  t[s]:    904.76
	FillingsUpdate:  mu: -0.101286486  nElectrons: 153.000000
	SubspaceRotationAdjust: set factor to 0.262
[...]

#--- Lowdin population analysis ---
# oxidation-state Na +0.055 +0.046 +0.034 +0.045 +0.043 +0.038 +0.043 +0.044 +0.042 +0.044 +0.043 +0.038 +0.043 +0.045 +0.034 +0.046 +0.055


-------- Electronic minimization -----------
	FillingsUpdate:  mu: -0.112343762  nElectrons: 153.000000
ElecMinimize: Iter:   0  F: -723.966877793532717  |grad|_K:  6.774e-05  alpha:  1.000e+00
	FillingsUpdate:  mu: -0.100013230  nElectrons: 153.000000
	SubspaceRotationAdjust: set factor to 0.0412
ElecMinimize: Iter:   1  F: -724.171550104010294  |grad|_K:  1.006e-05  alpha:  2.183e-01  linmin:  4.624e-02  t[s]:   1595.08
	FillingsUpdate:  mu: -0.098199198  nElectrons: 153.000000
	SubspaceRotationAdjust: set factor to 0.0414
ElecMinimize: Iter:   2  F: -724.178356619614419  |grad|_K:  3.312e-06  alpha:  3.289e-01  linmin: -8.068e-04  t[s]:   1620.55
	FillingsUpdate:  mu: -0.097565633  nElectrons: 153.000000
	SubspaceRotationAdjust: set factor to 0.042
ElecMinimize: Iter:   3  F: -724.179136280833177  |grad|_K:  1.343e-06  alpha:  3.434e-01  linmin: -1.215e-05  t[s]:   1646.02
	FillingsUpdate:  mu: -0.097373683  nElectrons: 153.000000
	SubspaceRotationAdjust: set factor to 0.0448
ElecMinimize: Iter:   4  F: -724.179274804395618  |grad|_K:  6.125e-07  alpha:  3.713e-01  linmin: -1.100e-06  t[s]:   1671.48
	FillingsUpdate:  mu: -0.097275177  nElectrons: 153.000000
	SubspaceRotationAdjust: set factor to 0.0542
ElecMinimize: Iter:   5  F: -724.179305647742581  |grad|_K:  3.467e-07  alpha:  3.976e-01  linmin:  4.915e-07  t[s]:   1696.94
	FillingsUpdate:  mu: -0.097241487  nElectrons: 153.000000
	SubspaceRotationAdjust: set factor to 0.0707
ElecMinimize: Iter:   6  F: -724.179317765262908  |grad|_K:  2.889e-07  alpha:  4.876e-01  linmin: -1.580e-06  t[s]:   1722.42
	FillingsUpdate:  mu: -0.097281577  nElectrons: 153.000000

Dumping 'X.fillings' ... done
Dumping 'X.wfns' ... done
Dumping 'X.ionpos' ... done
Dumping 'X.force' ... done
Dumping 'X.eigenvals' ... done
	SubspaceRotationAdjust: set factor to 0.086
ElecMinimize: Iter:   7  F: -724.179330522225655  |grad|_K:  3.521e-07  alpha:  7.392e-01  linmin: -2.874e-07  t[s]:   1749.61
	FillingsUpdate:  mu: -0.097441510  nElectrons: 153.000000
	SubspaceRotationAdjust: set factor to 0.098
ElecMinimize: Iter:   8  F: -724.179351264673187  |grad|_K:  4.383e-07  alpha:  8.092e-01  linmin:  2.489e-07  t[s]:   1773.99
	FillingsUpdate:  mu: -0.097796080  nElectrons: 153.000000
	SubspaceRotationAdjust: set factor to 0.109
ElecMinimize: Iter:   9  F: -724.179375553624936  |grad|_K:  4.278e-07  alpha:  6.115e-01  linmin:  1.825e-07  t[s]:   1799.04
	FillingsUpdate:  mu: -0.097990868  nElectrons: 153.000000
	SubspaceRotationAdjust: set factor to 0.12
ElecMinimize: Iter:  10  F: -724.179394785514660  |grad|_K:  3.572e-07  alpha:  5.083e-01  linmin:  2.329e-07  t[s]:   1823.90
	FillingsUpdate:  mu: -0.097908055  nElectrons: 153.000000
	SubspaceRotationAdjust: set factor to 0.127
ElecMinimize: Iter:  11  F: -724.179407818461300  |grad|_K:  2.900e-07  alpha:  4.941e-01  linmin: -1.255e-07  t[s]:   1848.68
	FillingsUpdate:  mu: -0.097493832  nElectrons: 153.000000
	SubspaceRotationAdjust: set factor to 0.128
ElecMinimize: Iter:  12  F: -724.179416228422383  |grad|_K:  2.201e-07  alpha:  4.837e-01  linmin: -2.948e-07  t[s]:   1873.47
	FillingsUpdate:  mu: -0.097507047  nElectrons: 153.000000
	SubspaceRotationAdjust: set factor to 0.125
ElecMinimize: Iter:  13  F: -724.179420663819315  |grad|_K:  1.576e-07  alpha:  4.426e-01  linmin:  4.649e-07  t[s]:   1898.41
	FillingsUpdate:  mu: -0.096955055  nElectrons: 153.000000
	SubspaceRotationAdjust: set factor to 0.115
ElecMinimize: Iter:  14  F: -724.179422685356599  |grad|_K:  1.253e-07  alpha:  3.935e-01  linmin: -9.963e-07  t[s]:   1923.80
	FillingsUpdate:  mu: -0.097758232  nElectrons: 153.000000

Dumping 'X.fillings' ... done
Dumping 'X.wfns' ... done
Dumping 'X.ionpos' ... done
Dumping 'X.force' ... done
Dumping 'X.eigenvals' ... done
	SubspaceRotationAdjust: set factor to 0.0833
ElecMinimize: Iter:  15  F: -724.179423577126158  |grad|_K:  1.069e-07  alpha:  2.747e-01  linmin:  4.825e-07  t[s]:   1951.34
	FillingsUpdate:  mu: -0.097351616  nElectrons: 153.000000
	SubspaceRotationAdjust: set factor to 0.0801
ElecMinimize: Iter:  16  F: -724.179424330357392  |grad|_K:  7.608e-08  alpha:  3.190e-01  linmin: -8.030e-06  t[s]:   1976.75
	FillingsUpdate:  mu: -0.097328759  nElectrons: 153.000000
	SubspaceRotationAdjust: set factor to 0.0963
ElecMinimize: Iter:  17  F: -724.179424885221010  |grad|_K:  6.733e-08  alpha:  4.635e-01  linmin: -3.305e-05  t[s]:   2002.23
	FillingsUpdate:  mu: -0.097744791  nElectrons: 153.000000
	SubspaceRotationAdjust: set factor to 0.0885
ElecMinimize: Iter:  18  F: -724.179425270739330  |grad|_K:  6.152e-08  alpha:  4.110e-01  linmin:  4.908e-05  t[s]:   2027.68
	FillingsUpdate:  mu: -0.097442195  nElectrons: 153.000000
	SubspaceRotationAdjust: set factor to 0.0824
ElecMinimize: Iter:  19  F: -724.179425576029985  |grad|_K:  5.288e-08  alpha:  3.913e-01  linmin:  1.144e-05  t[s]:   2053.12
	FillingsUpdate:  mu: -0.097564240  nElectrons: 153.000000
	SubspaceRotationAdjust: set factor to 0.0969
ElecMinimize: Iter:  20  F: -724.179425842864021  |grad|_K:  4.640e-08  alpha:  4.626e-01  linmin:  1.209e-05  t[s]:   2078.54
	FillingsUpdate:  mu: -0.097702561  nElectrons: 153.000000
	SubspaceRotationAdjust: set factor to 0.105
ElecMinimize: Iter:  21  F: -724.179426054819260  |grad|_K:  4.486e-08  alpha:  4.765e-01  linmin: -1.791e-05  t[s]:   2104.00
	FillingsUpdate:  mu: -0.097440742  nElectrons: 153.000000
	SubspaceRotationAdjust: set factor to 0.0904
ElecMinimize: Iter:  22  F: -724.179426225836892  |grad|_K:  4.310e-08  alpha:  4.097e-01  linmin:  1.419e-05  t[s]:   2128.46
	FillingsUpdate:  mu: -0.097650383  nElectrons: 153.000000

Dumping 'X.fillings' ... done
Dumping 'X.wfns' ... done
Dumping 'X.ionpos' ... done
Dumping 'X.force' ... done
Dumping 'X.eigenvals' ... done
	SubspaceRotationAdjust: set factor to 0.0766
ElecMinimize: Iter:  23  F: -724.179426364317806  |grad|_K:  3.543e-08  alpha:  3.632e-01  linmin: -2.652e-06  t[s]:   2155.47
	FillingsUpdate:  mu: -0.097573520  nElectrons: 153.000000
	SubspaceRotationAdjust: set factor to 0.0867
ElecMinimize: Iter:  24  F: -724.179426476060712  |grad|_K:  2.873e-08  alpha:  4.306e-01  linmin:  7.907e-06  t[s]:   2180.30
	FillingsUpdate:  mu: -0.097464356  nElectrons: 153.000000
	SubspaceRotationAdjust: set factor to 0.0884
ElecMinimize: Iter:  25  F: -724.179426549944651  |grad|_K:  2.492e-08  alpha:  4.332e-01  linmin:  6.829e-05  t[s]:   2205.15
	FillingsUpdate:  mu: -0.097583014  nElectrons: 153.000000
	SubspaceRotationAdjust: set factor to 0.076
ElecMinimize: Iter:  26  F: -724.179426600299735  |grad|_K:  2.111e-08  alpha:  3.998e-01  linmin: -4.816e-05  t[s]:   2229.80
	FillingsUpdate:  mu: -0.097487339  nElectrons: 153.000000
	SubspaceRotationAdjust: set factor to 0.0728
ElecMinimize: Iter:  27  F: -724.179426641553960  |grad|_K:  1.865e-08  alpha:  4.519e-01  linmin:  2.050e-04  t[s]:   2254.95
	FillingsUpdate:  mu: -0.097485363  nElectrons: 153.000000
	SubspaceRotationAdjust: set factor to 0.0818
ElecMinimize: Iter:  28  F: -724.179426668495239  |grad|_K:  1.446e-08  alpha:  4.012e-01  linmin: -7.353e-05  t[s]:   2280.36
	FillingsUpdate:  mu: -0.097536212  nElectrons: 153.000000
	SubspaceRotationAdjust: set factor to 0.0801
ElecMinimize: Iter:  29  F: -724.179426686620445  |grad|_K:  1.223e-08  alpha:  4.093e-01  linmin: -1.129e-04  t[s]:   2305.75
	FillingsUpdate:  mu: -0.097480843  nElectrons: 153.000000
	SubspaceRotationAdjust: set factor to 0.0774
ElecMinimize: Iter:  30  F: -724.179426700800491  |grad|_K:  1.090e-08  alpha:  4.503e-01  linmin:  8.094e-05  t[s]:   2331.21
	FillingsUpdate:  mu: -0.097497739  nElectrons: 153.000000

Dumping 'X.fillings' ... done
Dumping 'X.wfns' ... done
Dumping 'X.ionpos' ... done
Dumping 'X.force' ... done
Dumping 'X.eigenvals' ... done
	SubspaceRotationAdjust: set factor to 0.0834
ElecMinimize: Iter:  31  F: -724.179426712050486  |grad|_K:  9.965e-09  alpha:  4.824e-01  linmin:  1.898e-04  t[s]:   2358.88
	FillingsUpdate:  mu: -0.097508734  nElectrons: 153.000000
	SubspaceRotationAdjust: set factor to 0.0891
ElecMinimize: Iter:  32  F: -724.179426720648735  |grad|_K:  8.255e-09  alpha:  4.154e-01  linmin: -6.475e-05  t[s]:   2384.35
	FillingsUpdate:  mu: -0.097478595  nElectrons: 153.000000
	SubspaceRotationAdjust: set factor to 0.0855
ElecMinimize: Iter:  33  F: -724.179426725849339  |grad|_K:  6.521e-09  alpha:  3.778e-01  linmin: -5.035e-04  t[s]:   2409.80
ElecMinimize: Converged (|Delta F|<1.000000e-08 for 2 iters).
Setting wave functions to eigenvectors of Hamiltonian
Converging empty states (this may take a while): |deigs|: 9.477e-09

# Ionic positions in lattice coordinates:
ion Na   0.000000000000000   0.000000000000000   0.208346636664769 1
ion Na   0.500000000000000   0.500000000000000   0.245095189687202 1
ion Na   0.000000000000000   0.000000000000000   0.281063907777213 1
ion Na   0.500000000000000   0.500000000000000   0.317509154866421 1
ion Na   0.000000000000000   0.000000000000000   0.354207646345504 1
ion Na   0.500000000000000   0.500000000000000   0.390782761939940 1
ion Na   0.000000000000000   0.000000000000000   0.426981487537495 1
ion Na   0.500000000000000   0.500000000000000   0.463663560525871 1
ion Na   0.000000000000000   0.000000000000000   0.500000000000000 1
ion Na   0.500000000000000   0.500000000000000   0.536336439474129 1
ion Na   0.000000000000000   0.000000000000000   0.573018512462505 1
ion Na   0.500000000000000   0.500000000000000   0.609217238060060 1
ion Na   0.000000000000000   0.000000000000000   0.645792353654496 1
ion Na   0.500000000000000   0.500000000000000   0.682490845133579 1
ion Na   0.000000000000000   0.000000000000000   0.718936092222787 1
ion Na   0.500000000000000   0.500000000000000   0.754904810312798 1
ion Na   0.000000000000000   0.000000000000000   0.791653363335230 1

# Forces in Lattice coordinates:
force Na   0.000000000000000   0.000000000000000   0.007671292141759 1
force Na  -0.000000000000000  -0.000000000000000  -0.006823249333043 1
force Na  -0.000000000000000  -0.000000000000000   0.007225908470090 1
force Na   0.000000000000000  -0.000000000000000   0.000387289407319 1
force Na  -0.000000000000000  -0.000000000000000   0.000067458959639 1
force Na  -0.000000000000000   0.000000000000000  -0.004748729628608 1
force Na   0.000000000000000   0.000000000000000   0.007974582539540 1
force Na  -0.000000000000000  -0.000000000000000  -0.003386173035032 1
force Na  -0.000000000000000  -0.000000000000000   0.000000000000000 1
force Na  -0.000000000000000  -0.000000000000000   0.003386173035259 1
force Na  -0.000000000000000   0.000000000000000  -0.007974582539540 1
force Na  -0.000000000000000   0.000000000000000   0.004748729627699 1
force Na  -0.000000000000000  -0.000000000000000  -0.000067458960548 1
force Na   0.000000000000000  -0.000000000000000  -0.000387289407319 1
force Na  -0.000000000000000  -0.000000000000000  -0.007225908470090 1
force Na  -0.000000000000000  -0.000000000000000   0.006823249333043 1
force Na   0.000000000000000  -0.000000000000000  -0.007671292143579 1

# Energy components:
   Eewald =   -26520.5146914976976404
       EH =   -25940.2091991328088625
     Eloc =    51694.0789188195121824
      Enl =     -219.8382930314567716
   Epulay =        0.0000000132694628
      Exc =     -106.4707987872307910
       KE =      368.7753495710790048
-------------------------------------
     Etot =     -724.1787140453334359
       TS =        0.0007126805158731
-------------------------------------
        F =     -724.1794267258493392

IonicMinimize: Iter:   2  F: -724.179426725849339  |grad|_K:  2.907e-05  alpha:  1.000e+00  linmin:  6.920e-01  t[s]:   2437.09

#--- Lowdin population analysis ---
# oxidation-state Na +0.055 +0.046 +0.034 +0.046 +0.044 +0.038 +0.042 +0.044 +0.042 +0.044 +0.042 +0.038 +0.044 +0.046 +0.034 +0.046 +0.055


-------- Electronic minimization -----------
	FillingsUpdate:  mu: -0.098336087  nElectrons: 153.000000
ElecMinimize: Iter:   0  F: -724.179413862234128  |grad|_K:  4.730e-07  alpha:  1.000e+00
	FillingsUpdate:  mu: -0.096808826  nElectrons: 153.000000
	SubspaceRotationAdjust: set factor to 0.0508
ElecMinimize: Iter:   1  F: -724.179426311452175  |grad|_K:  1.445e-07  alpha:  2.692e-01  linmin:  8.124e-05  t[s]:   2481.05
	FillingsUpdate:  mu: -0.097734299  nElectrons: 153.000000
	SubspaceRotationAdjust: set factor to 0.0272
ElecMinimize: Iter:   2  F: -724.179427281031394  |grad|_K:  6.510e-08  alpha:  2.245e-01  linmin:  2.006e-05  t[s]:   2505.90
	FillingsUpdate:  mu: -0.097664204  nElectrons: 153.000000
	SubspaceRotationAdjust: set factor to 0.0382
ElecMinimize: Iter:   3  F: -724.179427678088814  |grad|_K:  4.333e-08  alpha:  4.481e-01  linmin: -2.098e-03  t[s]:   2530.68
	FillingsUpdate:  mu: -0.097470007  nElectrons: 153.000000
	SubspaceRotationAdjust: set factor to 0.0379
ElecMinimize: Iter:   4  F: -724.179427886736221  |grad|_K:  2.984e-08  alpha:  5.291e-01  linmin: -6.292e-04  t[s]:   2555.42
	FillingsUpdate:  mu: -0.097491694  nElectrons: 153.000000
	SubspaceRotationAdjust: set factor to 0.0425
ElecMinimize: Iter:   5  F: -724.179428004624697  |grad|_K:  2.443e-08  alpha:  6.393e-01  linmin: -1.221e-04  t[s]:   2580.37
	FillingsUpdate:  mu: -0.097560219  nElectrons: 153.000000
	SubspaceRotationAdjust: set factor to 0.0455
ElecMinimize: Iter:   6  F: -724.179428072115570  |grad|_K:  1.784e-08  alpha:  5.491e-01  linmin:  5.633e-04  t[s]:   2605.78
	FillingsUpdate:  mu: -0.097583804  nElectrons: 153.000000

Dumping 'X.fillings' ... done
Dumping 'X.wfns' ... done
Dumping 'X.ionpos' ... done
Dumping 'X.force' ... done
Dumping 'X.eigenvals' ... done
	SubspaceRotationAdjust: set factor to 0.0512
ElecMinimize: Iter:   7  F: -724.179428107730359  |grad|_K:  1.399e-08  alpha:  5.463e-01  linmin:  9.003e-04  t[s]:   2633.26
	FillingsUpdate:  mu: -0.097532647  nElectrons: 153.000000
	SubspaceRotationAdjust: set factor to 0.0541
ElecMinimize: Iter:   8  F: -724.179428131688496  |grad|_K:  1.270e-08  alpha:  6.134e-01  linmin:  1.264e-03  t[s]:   2658.70
	FillingsUpdate:  mu: -0.097541597  nElectrons: 153.000000
	SubspaceRotationAdjust: set factor to 0.0589
ElecMinimize: Iter:   9  F: -724.179428154499078  |grad|_K:  1.294e-08  alpha:  7.065e-01  linmin:  2.036e-04  t[s]:   2683.87
	FillingsUpdate:  mu: -0.097546030  nElectrons: 153.000000
	SubspaceRotationAdjust: set factor to 0.0632
ElecMinimize: Iter:  10  F: -724.179428174075611  |grad|_K:  1.174e-08  alpha:  5.627e-01  linmin: -7.916e-04  t[s]:   2709.33
	FillingsUpdate:  mu: -0.097499315  nElectrons: 153.000000
	SubspaceRotationAdjust: set factor to 0.0654
ElecMinimize: Iter:  11  F: -724.179428189613986  |grad|_K:  1.012e-08  alpha:  5.273e-01  linmin:  4.461e-05  t[s]:   2734.70
	FillingsUpdate:  mu: -0.097503654  nElectrons: 153.000000
	SubspaceRotationAdjust: set factor to 0.0703
ElecMinimize: Iter:  12  F: -724.179428200741086  |grad|_K:  8.490e-09  alpha:  5.267e-01  linmin:  4.425e-04  t[s]:   2759.93
	FillingsUpdate:  mu: -0.097503770  nElectrons: 153.000000
	SubspaceRotationAdjust: set factor to 0.0767
ElecMinimize: Iter:  13  F: -724.179428208289323  |grad|_K:  7.155e-09  alpha:  5.071e-01  linmin: -2.351e-04  t[s]:   2785.43
	FillingsUpdate:  mu: -0.097489290  nElectrons: 153.000000
	SubspaceRotationAdjust: set factor to 0.0812
ElecMinimize: Iter:  14  F: -724.179428213247434  |grad|_K:  6.202e-09  alpha:  4.952e-01  linmin: -9.992e-04  t[s]:   2809.93
ElecMinimize: Converged (|Delta F|<1.000000e-08 for 2 iters).
Setting wave functions to eigenvectors of Hamiltonian
Converging empty states (this may take a while): |deigs|: 1.107e-09

# Ionic positions in lattice coordinates:
ion Na   0.000000000000000  -0.000000000000000   0.208371082423299 1
ion Na   0.500000000000000   0.500000000000000   0.245041459181366 1
ion Na   0.000000000000000   0.000000000000000   0.281118589779520 1
ion Na   0.500000000000000   0.500000000000000   0.317525449559374 1
ion Na   0.000000000000000   0.000000000000000   0.354200652088084 1
ion Na   0.500000000000000   0.500000000000000   0.390727663962870 1
ion Na  -0.000000000000000   0.000000000000000   0.427020066034023 1
ion Na   0.500000000000000   0.500000000000000   0.463637201154007 1
ion Na   0.000000000000000   0.000000000000000   0.500000000000000 1
ion Na   0.500000000000000   0.500000000000000   0.536362798845993 1
ion Na  -0.000000000000000   0.000000000000000   0.572979933965977 1
ion Na   0.500000000000000   0.500000000000000   0.609272336037130 1
ion Na   0.000000000000000   0.000000000000000   0.645799347911916 1
ion Na   0.500000000000000   0.500000000000000   0.682474550440626 1
ion Na   0.000000000000000   0.000000000000000   0.718881410220480 1
ion Na   0.500000000000000   0.500000000000000   0.754958540818635 1
ion Na   0.000000000000000  -0.000000000000000   0.791628917576701 1

# Forces in Lattice coordinates:
force Na   0.000000000000000   0.000000000000000   0.003744853983342 1
force Na   0.000000000000000  -0.000000000000000   0.001821438190708 1
force Na   0.000000000000000  -0.000000000000000   0.000401428618836 1
force Na  -0.000000000000000  -0.000000000000000  -0.000574667767272 1
force Na   0.000000000000000   0.000000000000000  -0.000465206327325 1
force Na  -0.000000000000000   0.000000000000000   0.001210371612692 1
force Na  -0.000000000000000  -0.000000000000000   0.001069807516391 1
force Na  -0.000000000000000   0.000000000000000   0.000599402141590 1
force Na   0.000000000000000   0.000000000000000   0.000000000000000 1
force Na  -0.000000000000000   0.000000000000000  -0.000599402142045 1
force Na  -0.000000000000000  -0.000000000000000  -0.001069807515936 1
force Na  -0.000000000000000   0.000000000000000  -0.001210371612692 1
force Na   0.000000000000000   0.000000000000000   0.000465206327325 1
force Na   0.000000000000000  -0.000000000000000   0.000574667769091 1
force Na   0.000000000000000  -0.000000000000000  -0.000401428620655 1
force Na   0.000000000000000  -0.000000000000000  -0.001821438190708 1
force Na   0.000000000000000   0.000000000000000  -0.003744853985161 1

# Energy components:
   Eewald =   -26520.2143780127371429
       EH =   -25939.9111830807050865
     Eloc =    51693.4805235555977561
      Enl =     -219.8382932687880498
   Epulay =        0.0000000132694628
      Exc =     -106.4708596690126257
       KE =      368.7754756628836503
-------------------------------------
     Etot =     -724.1787147994956513
       TS =        0.0007134137518366
-------------------------------------
        F =     -724.1794282132474336


Dumping 'X.fillings' ... done
Dumping 'X.wfns' ... done
Dumping 'X.ionpos' ... done
Dumping 'X.force' ... done
Dumping 'X.lattice' ... done
Dumping 'X.eigenvals' ... done
Dumping 'X.dos' ... done.
IonicMinimize: Iter:   3  F: -724.179428213247434  |grad|_K:  8.341e-06  alpha:  1.000e+00  linmin:  6.309e-02  t[s]:   2836.51
IonicMinimize: Converged (|grad|_K<1.000000e-05).

#--- Lowdin population analysis ---
# oxidation-state Na +0.055 +0.046 +0.034 +0.046 +0.044 +0.038 +0.042 +0.044 +0.042 +0.044 +0.042 +0.038 +0.044 +0.046 +0.034 +0.046 +0.055


Dumping 'X.fillings' ... done
Dumping 'X.wfns' ... done
Dumping 'X.ionpos' ... done
Dumping 'X.lattice' ... done
Dumping 'X.n' ... done
Dumping 'X.eigenvals' ... done
Dumping 'X.eigStats' ... 
	eMin: -2.059674 at state 0 ( [ +0.000000 +0.000000 +0.000000 ] spin 0 )
	HOMO: -0.097651 at state 17 ( [ +0.272727 +0.454545 +0.000000 ] spin 0 )
	mu  : -0.097489
	LUMO: -0.097389 at state 9 ( [ +0.090909 +0.363636 +0.000000 ] spin 0 )
	eMax: +0.000655 at state 6 ( [ +0.090909 +0.090909 +0.000000 ] spin 0 )
	HOMO-LUMO gap: +0.000263
	Optical gap  : +0.002280 at state 17 ( [ +0.272727 +0.454545 +0.000000 ] spin 0 )
Dumping 'X.dos' ... done.
End date and time: Thu Nov  9 03:11:40 2023  (Duration: 0-0:47:19.52)
Done!
