
*************** JDFTx 1.7.0  ***************

Start date and time: Thu Nov  9 00:17:06 2023
Executable jdftx with command-line: -m -i X.in -o X.out
Running on hosts (process indices):  ac0369 (0-20)
Divided in process groups (process indices):  0 (0)  1 (1)  2 (2)  3 (3)  4 (4)  5 (5)  6 (6)  7 (7)  8 (8)  9 (9)  10 (10)  11 (11)  12 (12)  13 (13)  14 (14)  15 (15)  16 (16)  17 (17)  18 (18)  19 (19)  20 (20)
Resource initialization completed at t[s]:      0.02
Run totals: 21 processes, 21 threads, 0 GPUs


Input parsed successfully to the following command list (including defaults):

basis kpoint-dependent
cache-projectors no
coords-type Lattice
core-overlap-check vector
coulomb-interaction Slab 001
coulomb-truncation-embed 0 0 0.5
davidson-band-ratio 1.1
density-of-states Etol 1.000000e-06 Esigma 0.000000e+00 \
		Complete \
	Total \
		Occupied \
	Total
dump End State IonicPositions Lattice ElecDensity CoreDensity EigStats DOS
dump Electronic State Forces
dump Ionic State IonicPositions Forces Lattice DOS
dump-interval Electronic 8
dump-interval Ionic 4
dump-name X.$var
elec-cutoff 10
elec-eigen-algo Davidson
elec-ex-corr gga-PBE
elec-smearing Fermi 0.0095
electronic-minimize  \
	dirUpdateScheme      FletcherReeves \
	linminMethod         DirUpdateRecommended \
	nIterations          2000 \
	history              15 \
	knormThreshold       0 \
	energyDiffThreshold  1e-06 \
	nEnergyDiff          2 \
	alphaTstart          1 \
	alphaTmin            1e-10 \
	updateTestStepSize   yes \
	alphaTreduceFactor   0.1 \
	alphaTincreaseFactor 3 \
	nAlphaAdjustMax      3 \
	wolfeEnergy          0.0001 \
	wolfeGradient        0.9 \
	fdTest               no
exchange-regularization WignerSeitzTruncated
fluid None
fluid-ex-corr (null) lda-PZ
fluid-gummel-loop 10 1.000000e-05
fluid-minimize  \
	dirUpdateScheme      PolakRibiere \
	linminMethod         DirUpdateRecommended \
	nIterations          100 \
	history              15 \
	knormThreshold       0 \
	energyDiffThreshold  0 \
	nEnergyDiff          2 \
	alphaTstart          1 \
	alphaTmin            1e-10 \
	updateTestStepSize   yes \
	alphaTreduceFactor   0.1 \
	alphaTincreaseFactor 3 \
	nAlphaAdjustMax      3 \
	wolfeEnergy          0.0001 \
	wolfeGradient        0.9 \
	fdTest               no
fluid-solvent H2O 55.338 ScalarEOS \
	epsBulk 78.4 \
	pMol 0.92466 \
	epsInf 1.77 \
	Pvap 1.06736e-10 \
	sigmaBulk 4.62e-05 \
	Rvdw 2.61727 \
	Res 1.42 \
	tauNuc 343133 \
	poleEl 15 7 1
forces-output-coords Positions
initial-state X.$var
ion Na   0.000000000000000   0.000000000000000   0.279720000000000 1
ion Na   0.500000000000000   0.500000000000000   0.328670000000000 1
ion Na   0.000000000000000   0.000000000000000   0.377620000000000 1
ion Na   0.500000000000000   0.500000000000000   0.426570000000000 1
ion Na   0.000000000000000   0.000000000000000   0.475520000000000 1
ion Na   0.500000000000000   0.500000000000000   0.524480000000000 1
ion Na   0.000000000000000   0.000000000000000   0.573430000000000 1
ion Na   0.500000000000000   0.500000000000000   0.622380000000000 1
ion Na   0.000000000000000   0.000000000000000   0.671330000000000 1
ion Na   0.500000000000000   0.500000000000000   0.720280000000000 1
ion-species SG15/$ID_ONCV_PBE.upf
ion-width 0
ionic-minimize  \
	dirUpdateScheme      L-BFGS \
	linminMethod         DirUpdateRecommended \
	nIterations          0 \
	history              15 \
	knormThreshold       0.0001 \
	energyDiffThreshold  1e-06 \
	nEnergyDiff          2 \
	alphaTstart          1 \
	alphaTmin            1e-10 \
	updateTestStepSize   yes \
	alphaTreduceFactor   0.1 \
	alphaTincreaseFactor 3 \
	nAlphaAdjustMax      3 \
	wolfeEnergy          0.0001 \
	wolfeGradient        0.9 \
	fdTest               no
kpoint   0.000000000000   0.000000000000   0.000000000000  1.00000000000000
kpoint-folding 11 11 1 
latt-move-scale 1 1 1
latt-scale 1.88973 1.88973 1.88973 
lattice  \
	   4.199920000000001   -0.000000000000000   -0.000000000000000  \
	   0.000000000000000    4.199920000000001   -0.000000000000000  \
	   0.000000000000000    0.000000000000000   42.899600000000000 
lattice-minimize  \
	dirUpdateScheme      L-BFGS \
	linminMethod         DirUpdateRecommended \
	nIterations          0 \
	history              15 \
	knormThreshold       0 \
	energyDiffThreshold  1e-06 \
	nEnergyDiff          2 \
	alphaTstart          1 \
	alphaTmin            1e-10 \
	updateTestStepSize   yes \
	alphaTreduceFactor   0.1 \
	alphaTincreaseFactor 3 \
	nAlphaAdjustMax      3 \
	wolfeEnergy          0.0001 \
	wolfeGradient        0.9 \
	fdTest               no
lcao-params -1 1e-06 0.0095
pcm-variant GLSSA13
spintype no-spin
subspace-rotation-factor 1 yes
symmetries automatic
symmetry-threshold 0.0001



---------- Setting up symmetries ----------

Found 16 point-group symmetries of the bravais lattice
Found 16 space-group symmetries with basis
Applied RMS atom displacement 0 bohrs to make symmetries exact.

---------- Initializing the Grid ----------
R = 
[      7.93671            0            0  ]
[            0      7.93671            0  ]
[            0            0      81.0687  ]
unit cell volume = 5106.63
G =
[   0.791661          0          0  ]
[         -0   0.791661          0  ]
[          0         -0  0.0775045  ]
Minimum fftbox size, Smin = [  24  24  232  ]
Chosen fftbox size, S = [  24  24  240  ]

---------- Exchange Correlation functional ----------
Initalized PBE GGA exchange.
Initalized PBE GGA correlation.

---------- Setting up pseudopotentials ----------
Width of ionic core gaussian charges (only for fluid interactions / plotting) set to 0

Reading pseudopotential file '/net/software/testing/software/jdftx/1.7.0-foss-2021b-mkl/share/jdftx/pseudopotentials/SG15/Na_ONCV_PBE.upf':
  'Na' pseudopotential, 'PBE' functional
  Generated using ONCVPSP code by D. R. Hamann
  Author: Martin Schlipf and Francois Gygi  Date: 150915.
  9 valence electrons, 3 orbitals, 4 projectors, 1992 radial grid points, with lMax = 1
  Transforming local potential to a uniform radial grid of dG=0.02 with 823 points.
  Transforming nonlocal projectors to a uniform radial grid of dG=0.02 with 307 points.
    2S    l: 0   occupation:  2.0   eigenvalue: -2.085640
    2P    l: 1   occupation:  6.0   eigenvalue: -1.053708
    3S    l: 0   occupation:  1.0   eigenvalue: -0.100838
  Transforming atomic orbitals to a uniform radial grid of dG=0.02 with 307 points.
  Core radius for overlap checks: 2.01 bohrs.
  Reading pulay file /net/software/testing/software/jdftx/1.7.0-foss-2021b-mkl/share/jdftx/pseudopotentials/SG15/Na_ONCV_PBE.pulay ... using dE_dnG = -1.681960e+00 computed for Ecut = 10.

Initialized 1 species with 10 total atoms.

Folded 1 k-points by 11x11x1 to 121 k-points.

---------- Setting up k-points, bands, fillings ----------
Reduced to 21 k-points under symmetry. 
Computing the number of bands and number of electrons
Calculating initial fillings.
nElectrons:  90.000000   nBands: 50   nStates: 21

----- Setting up reduced wavefunction bases (one per k-point) -----
average nbasis = 7709.942 , ideal nbasis = 7713.093

----- Initializing Supercell corresponding to k-point mesh -----
Lattice vector linear combinations in supercell:
[  11   0   0  ]
[   0  11   0  ]
[   0   0   1  ]
Supercell lattice vectors:
[  87.3039  0  0  ]
[  0  87.3039  0  ]
[  0  0  81.0687  ]

---------- Setting up coulomb interaction ----------
Setting up double-sized grid for truncated Coulomb potentials:
R = 
[      7.93671            0            0  ]
[            0      7.93671            0  ]
[            0            0      162.137  ]
unit cell volume = 10213.3
G =
[   0.791661          0          0  ]
[         -0   0.791661          0  ]
[          0         -0  0.0387522  ]
Chosen fftbox size, S = [  24  24  480  ]
Integer grid location selected as the embedding center:
   Grid: [  0  0  120  ]
   Lattice: [  0  0  0.5  ]
   Cartesian: [  0  0  40.5343  ]
Constructing Wigner-Seitz cell: 6 faces (6 quadrilaterals, 0 hexagons)
Range-separation parameter for embedded mesh potentials due to point charges: 0.733214 bohrs.
Initialized slab truncation along lattice direction 001

---------- Setting up 2D ewald sum ----------
Optimum gaussian width for ewald sums = 4.734710 bohr.
Real space sums over 225 unit cells with max indices [  7  7  0  ]
Reciprocal space sums over 81 terms with max indices [  4  4  0  ]

---------- Allocating electronic variables ----------
Initializing wave functions:  linear combination of atomic orbitals
Na pseudo-atom occupations:   s ( 2 1 )  p ( 6 )
	FillingsUpdate:  mu: +0.062892808  nElectrons: 90.000000
LCAOMinimize: Iter:   0  F: -416.7037959620443530  |grad|_K:  4.974e-03  alpha:  1.000e+00
	FillingsUpdate:  mu: -0.307770624  nElectrons: 90.000000
LCAOMinimize: Iter:   1  F: -416.7109588096823813  |grad|_K:  4.667e-03  alpha:  9.605e-02  linmin:  1.815e-01  cgtest: -9.566e-01  t[s]:      1.18
LCAOMinimize: 	Bad step direction: g.d > 0.
LCAOMinimize: 	Undoing step.
LCAOMinimize: 	Step failed: resetting search direction.
	FillingsUpdate:  mu: -0.307770624  nElectrons: 90.000000
LCAOMinimize: Iter:   2  F: -416.7109588096823813  |grad|_K:  4.667e-03  alpha:  0.000e+00
	FillingsUpdate:  mu: -0.133535983  nElectrons: 90.000000
LCAOMinimize: Iter:   3  F: -416.7406447471344109  |grad|_K:  4.803e-04  alpha:  5.014e-02  linmin:  9.848e-03  cgtest: -4.673e-02  t[s]:      1.89
LCAOMinimize: 	Predicted alpha/alphaT>3.000000, increasing alphaT to 1.504140e-01.
LCAOMinimize: 	Predicted alpha/alphaT>3.000000, increasing alphaT to 4.512420e-01.
	FillingsUpdate:  mu: -0.149815666  nElectrons: 90.000000
LCAOMinimize: Iter:   4  F: -416.7438371742367735  |grad|_K:  3.883e-04  alpha:  5.083e-01  linmin: -2.992e-04  cgtest:  1.072e-01  t[s]:      4.58
	FillingsUpdate:  mu: -0.159864996  nElectrons: 90.000000
LCAOMinimize: Iter:   5  F: -416.7449618823353603  |grad|_K:  4.535e-04  alpha:  2.716e-01  linmin:  6.282e-06  cgtest: -3.133e-02  t[s]:      5.02
	FillingsUpdate:  mu: -0.140351820  nElectrons: 90.000000
LCAOMinimize: Iter:   6  F: -416.7453527306814181  |grad|_K:  5.303e-05  alpha:  6.988e-02  linmin:  5.572e-04  cgtest: -1.010e-01  t[s]:      5.45
LCAOMinimize: 	Predicted alpha/alphaT>3.000000, increasing alphaT to 2.096474e-01.
	FillingsUpdate:  mu: -0.140904994  nElectrons: 90.000000
LCAOMinimize: Iter:   7  F: -416.7453758481410091  |grad|_K:  4.070e-05  alpha:  3.031e-01  linmin:  2.213e-05  cgtest:  7.815e-03  t[s]:      6.04
	FillingsUpdate:  mu: -0.142529786  nElectrons: 90.000000
LCAOMinimize: Iter:   8  F: -416.7453786404220750  |grad|_K:  1.756e-05  alpha:  6.162e-02  linmin: -1.350e-04  cgtest:  4.110e-03  t[s]:      6.48
LCAOMinimize: 	Predicted alpha/alphaT>3.000000, increasing alphaT to 1.848690e-01.
	FillingsUpdate:  mu: -0.141903214  nElectrons: 90.000000
LCAOMinimize: Iter:   9  F: -416.7453819033388527  |grad|_K:  9.549e-06  alpha:  3.866e-01  linmin: -2.133e-05  cgtest: -7.004e-03  t[s]:      7.07
	FillingsUpdate:  mu: -0.141523478  nElectrons: 90.000000
LCAOMinimize: Iter:  10  F: -416.7453821500591289  |grad|_K:  8.534e-06  alpha:  9.904e-02  linmin: -7.548e-06  cgtest: -3.216e-04  t[s]:      7.50
	FillingsUpdate:  mu: -0.141931262  nElectrons: 90.000000
LCAOMinimize: Iter:  11  F: -416.7453824991735587  |grad|_K:  1.951e-06  alpha:  1.755e-01  linmin:  1.483e-05  cgtest: -1.020e-03  t[s]:      7.93
LCAOMinimize: Converged (|Delta F|<1.000000e-06 for 2 iters).


---- Citations for features of the code used in this run ----

   Software package:
      R. Sundararaman, K. Letchworth-Weaver, K.A. Schwarz, D. Gunceler, Y. Ozhabes and T.A. Arias, 'JDFTx: software for joint density-functional theory', SoftwareX 6, 278 (2017)

   gga-PBE exchange-correlation functional:
      J.P. Perdew, K. Burke and M. Ernzerhof, Phys. Rev. Lett. 77, 3865 (1996)

   Pseudopotentials:
      M Schlipf and F Gygi, Comput. Phys. Commun. 196, 36 (2015)

   Truncated Coulomb potentials:
      R. Sundararaman and T.A. Arias, Phys. Rev. B 87, 165122 (2013)

   Total energy minimization with Auxiliary Hamiltonian:
      C. Freysoldt, S. Boeck, and J. Neugebauer, Phys. Rev. B 79, 241103(R) (2009)

   Linear-tetrahedron sampling for density of states:
      G. Lehmann and M. Taut, Phys. status solidi (b) 54, 469 (1972)

This list may not be complete. Please suggest additional citations or
report any other bugs at https://github.com/shankar1729/jdftx/issues

Initialization completed successfully at t[s]:      7.99


-------- Electronic minimization -----------
	FillingsUpdate:  mu: -0.141931262  nElectrons: 90.000000
ElecMinimize: Iter:   0  F: -416.745382499173559  |grad|_K:  5.024e-04  alpha:  1.000e+00
	FillingsUpdate:  mu: -0.128649771  nElectrons: 90.000000
	SubspaceRotationAdjust: set factor to 1
ElecMinimize: Iter:   1  F: -417.341861645747827  |grad|_K:  1.280e-04  alpha:  2.919e-01  linmin:  3.075e-03  t[s]:      9.05
	FillingsUpdate:  mu: -0.154945710  nElectrons: 90.000000
	SubspaceRotationAdjust: set factor to 0.967
ElecMinimize: Iter:   2  F: -417.388147685229569  |grad|_K:  6.481e-05  alpha:  3.498e-01  linmin:  9.852e-06  t[s]:      9.71
	FillingsUpdate:  mu: -0.095504090  nElectrons: 90.000000
	SubspaceRotationAdjust: set factor to 0.684
ElecMinimize: Iter:   3  F: -417.392929552518012  |grad|_K:  7.737e-05  alpha:  1.396e-01  linmin: -2.164e-05  t[s]:     10.36
	FillingsUpdate:  mu: -0.130111884  nElectrons: 90.000000
	SubspaceRotationAdjust: set factor to 0.609
ElecMinimize: Iter:   4  F: -417.403729971827431  |grad|_K:  4.448e-05  alpha:  2.219e-01  linmin:  2.734e-05  t[s]:     11.01
ElecMinimize: 	Predicted alpha/alphaT>3.000000, increasing alphaT to 6.656884e-01.
	FillingsUpdate:  mu: -0.146318629  nElectrons: 90.000000
	SubspaceRotationAdjust: set factor to 0.633
ElecMinimize: Iter:   5  F: -417.415030529143621  |grad|_K:  5.188e-05  alpha:  7.065e-01  linmin:  1.388e-05  t[s]:     11.88
	FillingsUpdate:  mu: -0.093674554  nElectrons: 90.000000
	SubspaceRotationAdjust: set factor to 0.436
ElecMinimize: Iter:   6  F: -417.419495445142047  |grad|_K:  5.313e-05  alpha:  1.936e-01  linmin: -3.935e-04  t[s]:     12.54
	FillingsUpdate:  mu: -0.122413631  nElectrons: 90.000000

Dumping 'X.fillings' ... done
Dumping 'X.wfns' ... done
Dumping 'X.force' ... done
Dumping 'X.eigenvals' ... done
	SubspaceRotationAdjust: set factor to 0.33
ElecMinimize: Iter:   7  F: -417.425957668610351  |grad|_K:  3.282e-05  alpha:  2.696e-01  linmin:  2.415e-04  t[s]:     13.30
	FillingsUpdate:  mu: -0.114293734  nElectrons: 90.000000
	SubspaceRotationAdjust: set factor to 0.344
ElecMinimize: Iter:   8  F: -417.429878698338598  |grad|_K:  2.290e-05  alpha:  4.521e-01  linmin:  1.075e-05  t[s]:     13.95
	FillingsUpdate:  mu: -0.106891253  nElectrons: 90.000000
	SubspaceRotationAdjust: set factor to 0.347
ElecMinimize: Iter:   9  F: -417.431883824592887  |grad|_K:  1.777e-05  alpha:  4.712e-01  linmin:  3.250e-06  t[s]:     14.61
	FillingsUpdate:  mu: -0.122496942  nElectrons: 90.000000
	SubspaceRotationAdjust: set factor to 0.288
ElecMinimize: Iter:  10  F: -417.433029194250196  |grad|_K:  1.744e-05  alpha:  4.467e-01  linmin:  1.201e-05  t[s]:     15.26
	FillingsUpdate:  mu: -0.104367884  nElectrons: 90.000000
	SubspaceRotationAdjust: set factor to 0.196
ElecMinimize: Iter:  11  F: -417.433835104873765  |grad|_K:  1.469e-05  alpha:  3.262e-01  linmin:  1.666e-06  t[s]:     15.92
	FillingsUpdate:  mu: -0.111598085  nElectrons: 90.000000
	SubspaceRotationAdjust: set factor to 0.208
ElecMinimize: Iter:  12  F: -417.434650192616630  |grad|_K:  1.235e-05  alpha:  4.655e-01  linmin:  4.466e-06  t[s]:     16.57
	FillingsUpdate:  mu: -0.118474862  nElectrons: 90.000000
	SubspaceRotationAdjust: set factor to 0.202
ElecMinimize: Iter:  13  F: -417.435214864241232  |grad|_K:  1.039e-05  alpha:  4.565e-01  linmin:  5.462e-06  t[s]:     17.23
	FillingsUpdate:  mu: -0.110068900  nElectrons: 90.000000
	SubspaceRotationAdjust: set factor to 0.171
ElecMinimize: Iter:  14  F: -417.435584163887881  |grad|_K:  7.740e-06  alpha:  4.220e-01  linmin:  7.131e-06  t[s]:     17.88
	FillingsUpdate:  mu: -0.112542290  nElectrons: 90.000000

Dumping 'X.fillings' ... done
Dumping 'X.wfns' ... done
Dumping 'X.force' ... done
Dumping 'X.eigenvals' ... done
	SubspaceRotationAdjust: set factor to 0.181
ElecMinimize: Iter:  15  F: -417.435815854962868  |grad|_K:  6.609e-06  alpha:  4.769e-01  linmin:  3.557e-06  t[s]:     18.64
	FillingsUpdate:  mu: -0.115378508  nElectrons: 90.000000
	SubspaceRotationAdjust: set factor to 0.182
ElecMinimize: Iter:  16  F: -417.435991463180585  |grad|_K:  6.214e-06  alpha:  4.953e-01  linmin:  2.690e-05  t[s]:     19.30
	FillingsUpdate:  mu: -0.112553410  nElectrons: 90.000000
	SubspaceRotationAdjust: set factor to 0.182
ElecMinimize: Iter:  17  F: -417.436152186441745  |grad|_K:  5.651e-06  alpha:  5.131e-01  linmin:  1.080e-05  t[s]:     19.95
	FillingsUpdate:  mu: -0.113012367  nElectrons: 90.000000
	SubspaceRotationAdjust: set factor to 0.191
ElecMinimize: Iter:  18  F: -417.436284915476961  |grad|_K:  4.859e-06  alpha:  5.124e-01  linmin:  6.980e-06  t[s]:     20.60
	FillingsUpdate:  mu: -0.114708210  nElectrons: 90.000000
	SubspaceRotationAdjust: set factor to 0.193
ElecMinimize: Iter:  19  F: -417.436376155509436  |grad|_K:  4.228e-06  alpha:  4.765e-01  linmin:  4.409e-06  t[s]:     21.26
	FillingsUpdate:  mu: -0.113532599  nElectrons: 90.000000
	SubspaceRotationAdjust: set factor to 0.195
ElecMinimize: Iter:  20  F: -417.436444566143905  |grad|_K:  3.690e-06  alpha:  4.717e-01  linmin:  3.075e-06  t[s]:     21.91
	FillingsUpdate:  mu: -0.113814101  nElectrons: 90.000000
	SubspaceRotationAdjust: set factor to 0.199
ElecMinimize: Iter:  21  F: -417.436500809128972  |grad|_K:  3.277e-06  alpha:  5.093e-01  linmin:  4.262e-06  t[s]:     22.57
	FillingsUpdate:  mu: -0.114579977  nElectrons: 90.000000
	SubspaceRotationAdjust: set factor to 0.2
ElecMinimize: Iter:  22  F: -417.436543724471505  |grad|_K:  2.916e-06  alpha:  4.927e-01  linmin:  3.366e-06  t[s]:     23.22
	FillingsUpdate:  mu: -0.113632391  nElectrons: 90.000000

Dumping 'X.fillings' ... done
Dumping 'X.wfns' ... done
Dumping 'X.force' ... done
Dumping 'X.eigenvals' ... done
	SubspaceRotationAdjust: set factor to 0.196
ElecMinimize: Iter:  23  F: -417.436575965067107  |grad|_K:  2.456e-06  alpha:  4.675e-01  linmin:  2.190e-06  t[s]:     23.98
	FillingsUpdate:  mu: -0.114096696  nElectrons: 90.000000
	SubspaceRotationAdjust: set factor to 0.199
ElecMinimize: Iter:  24  F: -417.436599152705185  |grad|_K:  2.115e-06  alpha:  4.739e-01  linmin:  2.789e-06  t[s]:     24.64
	FillingsUpdate:  mu: -0.114492381  nElectrons: 90.000000
	SubspaceRotationAdjust: set factor to 0.203
ElecMinimize: Iter:  25  F: -417.436617144635477  |grad|_K:  1.893e-06  alpha:  4.955e-01  linmin:  2.818e-06  t[s]:     25.29
	FillingsUpdate:  mu: -0.113694372  nElectrons: 90.000000
	SubspaceRotationAdjust: set factor to 0.201
ElecMinimize: Iter:  26  F: -417.436631244050318  |grad|_K:  1.688e-06  alpha:  4.850e-01  linmin:  1.603e-06  t[s]:     25.95
	FillingsUpdate:  mu: -0.114154391  nElectrons: 90.000000
	SubspaceRotationAdjust: set factor to 0.207
ElecMinimize: Iter:  27  F: -417.436642650287581  |grad|_K:  1.491e-06  alpha:  4.929e-01  linmin:  3.595e-06  t[s]:     26.64
	FillingsUpdate:  mu: -0.114450385  nElectrons: 90.000000
	SubspaceRotationAdjust: set factor to 0.217
ElecMinimize: Iter:  28  F: -417.436651493915576  |grad|_K:  1.299e-06  alpha:  4.904e-01  linmin: -1.416e-07  t[s]:     27.29
	FillingsUpdate:  mu: -0.113800623  nElectrons: 90.000000
	SubspaceRotationAdjust: set factor to 0.213
ElecMinimize: Iter:  29  F: -417.436657697391013  |grad|_K:  1.088e-06  alpha:  4.527e-01  linmin: -3.739e-07  t[s]:     27.94
	FillingsUpdate:  mu: -0.114142093  nElectrons: 90.000000
	SubspaceRotationAdjust: set factor to 0.219
ElecMinimize: Iter:  30  F: -417.436662188983917  |grad|_K:  9.157e-07  alpha:  4.676e-01  linmin: -1.121e-07  t[s]:     28.60
	FillingsUpdate:  mu: -0.114230465  nElectrons: 90.000000

Dumping 'X.fillings' ... done
Dumping 'X.wfns' ... done
Dumping 'X.force' ... done
Dumping 'X.eigenvals' ... done
	SubspaceRotationAdjust: set factor to 0.229
ElecMinimize: Iter:  31  F: -417.436665507261353  |grad|_K:  8.006e-07  alpha:  4.874e-01  linmin: -1.126e-07  t[s]:     29.35
	FillingsUpdate:  mu: -0.113854935  nElectrons: 90.000000
	SubspaceRotationAdjust: set factor to 0.221
ElecMinimize: Iter:  32  F: -417.436667867682047  |grad|_K:  6.617e-07  alpha:  4.535e-01  linmin: -2.945e-07  t[s]:     30.00
	FillingsUpdate:  mu: -0.114137186  nElectrons: 90.000000
	SubspaceRotationAdjust: set factor to 0.214
ElecMinimize: Iter:  33  F: -417.436669437349110  |grad|_K:  5.321e-07  alpha:  4.415e-01  linmin:  3.155e-07  t[s]:     30.65
	FillingsUpdate:  mu: -0.114073076  nElectrons: 90.000000
	SubspaceRotationAdjust: set factor to 0.219
ElecMinimize: Iter:  34  F: -417.436670500316382  |grad|_K:  4.439e-07  alpha:  4.625e-01  linmin: -3.165e-07  t[s]:     31.30
	FillingsUpdate:  mu: -0.113961562  nElectrons: 90.000000
	SubspaceRotationAdjust: set factor to 0.219
ElecMinimize: Iter:  35  F: -417.436671256279283  |grad|_K:  3.877e-07  alpha:  4.725e-01  linmin: -7.418e-07  t[s]:     31.96
	FillingsUpdate:  mu: -0.114126440  nElectrons: 90.000000
	SubspaceRotationAdjust: set factor to 0.214
ElecMinimize: Iter:  36  F: -417.436671855204679  |grad|_K:  3.554e-07  alpha:  4.906e-01  linmin: -6.029e-07  t[s]:     32.61
ElecMinimize: Converged (|Delta F|<1.000000e-06 for 2 iters).
Setting wave functions to eigenvectors of Hamiltonian

# Ionic positions in lattice coordinates:
ion Na   0.000000000000000   0.000000000000000   0.279720000000000 1
ion Na   0.500000000000000   0.500000000000000   0.328670000000000 1
ion Na   0.000000000000000   0.000000000000000   0.377620000000000 1
ion Na   0.500000000000000   0.500000000000000   0.426570000000000 1
ion Na   0.000000000000000   0.000000000000000   0.475520000000000 1
ion Na   0.500000000000000   0.500000000000000   0.524480000000000 1
ion Na   0.000000000000000   0.000000000000000   0.573430000000000 1
ion Na   0.500000000000000   0.500000000000000   0.622380000000000 1
ion Na   0.000000000000000   0.000000000000000   0.671330000000000 1
ion Na   0.500000000000000   0.500000000000000   0.720280000000000 1

# Forces in Lattice coordinates:
force Na   0.000000000000000  -0.000000000000000   0.026549827128904 1
force Na   0.000000000000000   0.000000000000000  -0.023932560487883 1
force Na  -0.000000000000000   0.000000000000000  -0.024866614269846 1
force Na   0.000000000000000   0.000000000000000  -0.027332532504089 1
force Na   0.000000000000000   0.000000000000000  -0.010926777523103 1
force Na   0.000000000000000   0.000000000000000   0.010926777523103 1
force Na   0.000000000000000  -0.000000000000000   0.027332532504317 1
force Na  -0.000000000000000  -0.000000000000000   0.024866614269846 1
force Na   0.000000000000000  -0.000000000000000   0.023932560487883 1
force Na   0.000000000000000  -0.000000000000000  -0.026549827127995 1

# Energy components:
   Eewald =    -5501.5323757579535595
       EH =    -5178.1630430687700937
     Eloc =    10238.7215953722352424
      Enl =     -115.4725084149953886
   Epulay =       -0.0103768231657642
      Exc =      -59.7635558423181195
       KE =      198.8206843462349980
-------------------------------------
     Etot =     -417.3995801887318748
       TS =        0.0370916664728277
-------------------------------------
        F =     -417.4366718552046791

IonicMinimize: Iter:   0  F: -417.436671855204679  |grad|_K:  1.674e-04  t[s]:     32.75
IonicMinimize: None of the convergence criteria satisfied after 0 iterations.

#--- Lowdin population analysis ---
# oxidation-state Na +0.071 +0.046 +0.038 +0.049 +0.044 +0.044 +0.049 +0.038 +0.046 +0.071


Dumping 'X.fillings' ... done
Dumping 'X.wfns' ... done
Dumping 'X.ionpos' ... done
Dumping 'X.lattice' ... done
Dumping 'X.n' ... done
Dumping 'X.eigenvals' ... done
Dumping 'X.eigStats' ... 
	eMin: -2.308441 at state 1 ( [ +0.000000 +0.090909 +0.000000 ] spin 0 )
	HOMO: -0.115046 at state 10 ( [ +0.090909 +0.454545 +0.000000 ] spin 0 )
	mu  : -0.114126
	LUMO: -0.112920 at state 1 ( [ +0.000000 +0.090909 +0.000000 ] spin 0 )
	eMax: -0.005322 at state 11 ( [ +0.181818 +0.181818 +0.000000 ] spin 0 )
	HOMO-LUMO gap: +0.002126
	Optical gap  : +0.008177 at state 17 ( [ +0.272727 +0.454545 +0.000000 ] spin 0 )
Dumping 'X.dos' ... done.
End date and time: Thu Nov  9 00:17:39 2023  (Duration: 0-0:00:32.93)
Done!

*************** JDFTx 1.7.0  ***************

Start date and time: Thu Nov  9 00:17:41 2023
Executable jdftx with command-line: -m -i X.in -o X.out
Running on hosts (process indices):  ac0369 (0-20)
Divided in process groups (process indices):  0 (0)  1 (1)  2 (2)  3 (3)  4 (4)  5 (5)  6 (6)  7 (7)  8 (8)  9 (9)  10 (10)  11 (11)  12 (12)  13 (13)  14 (14)  15 (15)  16 (16)  17 (17)  18 (18)  19 (19)  20 (20)
Resource initialization completed at t[s]:      0.01
Run totals: 21 processes, 21 threads, 0 GPUs


Input parsed successfully to the following command list (including defaults):

basis kpoint-dependent
cache-projectors no
coords-type Lattice
core-overlap-check vector
coulomb-interaction Slab 001
coulomb-truncation-embed 0 0 0.5
davidson-band-ratio 1.1
density-of-states Etol 1.000000e-06 Esigma 0.000000e+00 \
		Complete \
	Total \
		Occupied \
	Total
dump End State IonicPositions Lattice ElecDensity CoreDensity EigStats DOS
dump Electronic State Forces
dump Ionic State IonicPositions Forces Lattice DOS
dump-interval Electronic 8
dump-interval Ionic 4
dump-name X.$var
elec-cutoff 20
elec-eigen-algo Davidson
elec-ex-corr gga-PBE
elec-smearing Fermi 0.0095
electronic-minimize  \
	dirUpdateScheme      FletcherReeves \
	linminMethod         DirUpdateRecommended \
	nIterations          2000 \
	history              15 \
	knormThreshold       0 \
	energyDiffThreshold  1e-07 \
	nEnergyDiff          2 \
	alphaTstart          1 \
	alphaTmin            1e-10 \
	updateTestStepSize   yes \
	alphaTreduceFactor   0.1 \
	alphaTincreaseFactor 3 \
	nAlphaAdjustMax      3 \
	wolfeEnergy          0.0001 \
	wolfeGradient        0.9 \
	fdTest               no
exchange-regularization WignerSeitzTruncated
fluid None
fluid-ex-corr (null) lda-PZ
fluid-gummel-loop 10 1.000000e-05
fluid-minimize  \
	dirUpdateScheme      PolakRibiere \
	linminMethod         DirUpdateRecommended \
	nIterations          100 \
	history              15 \
	knormThreshold       0 \
	energyDiffThreshold  0 \
	nEnergyDiff          2 \
	alphaTstart          1 \
	alphaTmin            1e-10 \
	updateTestStepSize   yes \
	alphaTreduceFactor   0.1 \
	alphaTincreaseFactor 3 \
	nAlphaAdjustMax      3 \
	wolfeEnergy          0.0001 \
	wolfeGradient        0.9 \
	fdTest               no
fluid-solvent H2O 55.338 ScalarEOS \
	epsBulk 78.4 \
	pMol 0.92466 \
	epsInf 1.77 \
	Pvap 1.06736e-10 \
	sigmaBulk 4.62e-05 \
	Rvdw 2.61727 \
	Res 1.42 \
	tauNuc 343133 \
	poleEl 15 7 1
forces-output-coords Positions
ion Na   0.000000000000000   0.000000000000000   0.279720000000000 1
ion Na   0.500000000000000   0.500000000000000   0.328670000000000 1
ion Na   0.000000000000000   0.000000000000000   0.377620000000000 1
ion Na   0.500000000000000   0.500000000000000   0.426570000000000 1
ion Na   0.000000000000000   0.000000000000000   0.475520000000000 1
ion Na   0.500000000000000   0.500000000000000   0.524480000000000 1
ion Na   0.000000000000000   0.000000000000000   0.573430000000000 1
ion Na   0.500000000000000   0.500000000000000   0.622380000000000 1
ion Na   0.000000000000000   0.000000000000000   0.671330000000000 1
ion Na   0.500000000000000   0.500000000000000   0.720280000000000 1
ion-species SG15/$ID_ONCV_PBE.upf
ion-width 0
ionic-minimize  \
	dirUpdateScheme      L-BFGS \
	linminMethod         DirUpdateRecommended \
	nIterations          0 \
	history              15 \
	knormThreshold       0.0001 \
	energyDiffThreshold  1e-06 \
	nEnergyDiff          2 \
	alphaTstart          1 \
	alphaTmin            1e-10 \
	updateTestStepSize   yes \
	alphaTreduceFactor   0.1 \
	alphaTincreaseFactor 3 \
	nAlphaAdjustMax      3 \
	wolfeEnergy          0.0001 \
	wolfeGradient        0.9 \
	fdTest               no
kpoint   0.000000000000   0.000000000000   0.000000000000  1.00000000000000
kpoint-folding 11 11 1 
latt-move-scale 1 1 1
latt-scale 1 1 1 
lattice  \
	   7.936714821600003   -0.000000000000000   -0.000000000000000  \
	   0.000000000000000    7.936714821600003   -0.000000000000000  \
	   0.000000000000000    0.000000000000000   81.068661108000001 
lattice-minimize  \
	dirUpdateScheme      L-BFGS \
	linminMethod         DirUpdateRecommended \
	nIterations          0 \
	history              15 \
	knormThreshold       0 \
	energyDiffThreshold  1e-06 \
	nEnergyDiff          2 \
	alphaTstart          1 \
	alphaTmin            1e-10 \
	updateTestStepSize   yes \
	alphaTreduceFactor   0.1 \
	alphaTincreaseFactor 3 \
	nAlphaAdjustMax      3 \
	wolfeEnergy          0.0001 \
	wolfeGradient        0.9 \
	fdTest               no
lcao-params -1 1e-06 0.0095
pcm-variant GLSSA13
spintype no-spin
subspace-rotation-factor 1 yes
symmetries automatic
symmetry-threshold 0.0001
wavefunction read X.wfns 50 10.000000



---------- Setting up symmetries ----------

Found 16 point-group symmetries of the bravais lattice
Found 16 space-group symmetries with basis
Applied RMS atom displacement 0 bohrs to make symmetries exact.

---------- Initializing the Grid ----------
R = 
[      7.93671            0            0  ]
[            0      7.93671            0  ]
[            0            0      81.0687  ]
unit cell volume = 5106.63
G =
[   0.791661          0          0  ]
[         -0   0.791661          0  ]
[          0         -0  0.0775045  ]
Minimum fftbox size, Smin = [  32  32  328  ]
Chosen fftbox size, S = [  32  32  336  ]

---------- Exchange Correlation functional ----------
Initalized PBE GGA exchange.
Initalized PBE GGA correlation.

---------- Setting up pseudopotentials ----------
Width of ionic core gaussian charges (only for fluid interactions / plotting) set to 0

Reading pseudopotential file '/net/software/testing/software/jdftx/1.7.0-foss-2021b-mkl/share/jdftx/pseudopotentials/SG15/Na_ONCV_PBE.upf':
  'Na' pseudopotential, 'PBE' functional
  Generated using ONCVPSP code by D. R. Hamann
  Author: Martin Schlipf and Francois Gygi  Date: 150915.
  9 valence electrons, 3 orbitals, 4 projectors, 1992 radial grid points, with lMax = 1
  Transforming local potential to a uniform radial grid of dG=0.02 with 1113 points.
  Transforming nonlocal projectors to a uniform radial grid of dG=0.02 with 432 points.
    2S    l: 0   occupation:  2.0   eigenvalue: -2.085640
    2P    l: 1   occupation:  6.0   eigenvalue: -1.053708
    3S    l: 0   occupation:  1.0   eigenvalue: -0.100838
  Transforming atomic orbitals to a uniform radial grid of dG=0.02 with 432 points.
  Core radius for overlap checks: 2.01 bohrs.
  Reading pulay file /net/software/testing/software/jdftx/1.7.0-foss-2021b-mkl/share/jdftx/pseudopotentials/SG15/Na_ONCV_PBE.pulay ... using dE_dnG = -2.946487e-03 computed for Ecut = 20.

Initialized 1 species with 10 total atoms.

Folded 1 k-points by 11x11x1 to 121 k-points.

---------- Setting up k-points, bands, fillings ----------
Reduced to 21 k-points under symmetry. 
Computing the number of bands and number of electrons
Calculating initial fillings.
nElectrons:  90.000000   nBands: 50   nStates: 21

----- Setting up reduced wavefunction bases (one per k-point) -----
average nbasis = 21815.661 , ideal nbasis = 21815.921

----- Initializing Supercell corresponding to k-point mesh -----
Lattice vector linear combinations in supercell:
[  11   0   0  ]
[   0  11   0  ]
[   0   0   1  ]
Supercell lattice vectors:
[  87.3039  0  0  ]
[  0  87.3039  0  ]
[  0  0  81.0687  ]

---------- Setting up coulomb interaction ----------
Setting up double-sized grid for truncated Coulomb potentials:
R = 
[      7.93671            0            0  ]
[            0      7.93671            0  ]
[            0            0      162.137  ]
unit cell volume = 10213.3
G =
[   0.791661          0          0  ]
[         -0   0.791661          0  ]
[          0         -0  0.0387522  ]
Chosen fftbox size, S = [  32  32  672  ]
Integer grid location selected as the embedding center:
   Grid: [  0  0  168  ]
   Lattice: [  0  0  0.5  ]
   Cartesian: [  0  0  40.5343  ]
Constructing Wigner-Seitz cell: 6 faces (6 quadrilaterals, 0 hexagons)
Range-separation parameter for embedded mesh potentials due to point charges: 0.628283 bohrs.
Initialized slab truncation along lattice direction 001

---------- Setting up 2D ewald sum ----------
Optimum gaussian width for ewald sums = 4.734710 bohr.
Real space sums over 225 unit cells with max indices [  7  7  0  ]
Reciprocal space sums over 81 terms with max indices [  4  4  0  ]

---------- Allocating electronic variables ----------
Initializing wave functions:  reading from 'X.wfns'


---- Citations for features of the code used in this run ----

   Software package:
      R. Sundararaman, K. Letchworth-Weaver, K.A. Schwarz, D. Gunceler, Y. Ozhabes and T.A. Arias, 'JDFTx: software for joint density-functional theory', SoftwareX 6, 278 (2017)

   gga-PBE exchange-correlation functional:
      J.P. Perdew, K. Burke and M. Ernzerhof, Phys. Rev. Lett. 77, 3865 (1996)

   Pseudopotentials:
      M Schlipf and F Gygi, Comput. Phys. Commun. 196, 36 (2015)

   Truncated Coulomb potentials:
      R. Sundararaman and T.A. Arias, Phys. Rev. B 87, 165122 (2013)

   Total energy minimization with Auxiliary Hamiltonian:
      C. Freysoldt, S. Boeck, and J. Neugebauer, Phys. Rev. B 79, 241103(R) (2009)

   Linear-tetrahedron sampling for density of states:
      G. Lehmann and M. Taut, Phys. status solidi (b) 54, 469 (1972)

This list may not be complete. Please suggest additional citations or
report any other bugs at https://github.com/shankar1729/jdftx/issues

Initialization completed successfully at t[s]:      0.53


Setting the auxilliary hamiltonian equal to the subspace hamiltonian.

-------- Electronic minimization -----------
	FillingsUpdate:  mu: -0.081188021  nElectrons: 90.000000
ElecMinimize: Iter:   0  F: -417.406717201085314  |grad|_K:  1.161e-03  alpha:  1.000e+00
	FillingsUpdate:  mu: -0.334193359  nElectrons: 90.000000
	SubspaceRotationAdjust: set factor to 0.933
ElecMinimize: Iter:   1  F: -425.081817929934232  |grad|_K:  4.195e-04  alpha:  2.714e-01  linmin:  1.501e-02  t[s]:      6.21
	FillingsUpdate:  mu: +0.247308041  nElectrons: 90.000000
	SubspaceRotationAdjust: set factor to 0.596
ElecMinimize: Iter:   2  F: -425.493674990396414  |grad|_K:  3.847e-04  alpha:  1.169e-01  linmin:  5.179e-04  t[s]:      8.77
	FillingsUpdate:  mu: -0.088488766  nElectrons: 90.000000
	SubspaceRotationAdjust: set factor to 1.06
ElecMinimize: Iter:   3  F: -425.921197692292822  |grad|_K:  7.505e-05  alpha:  1.322e-01  linmin:  1.752e-03  t[s]:     11.34
	FillingsUpdate:  mu: -0.154534352  nElectrons: 90.000000
	SubspaceRotationAdjust: set factor to 0.63
ElecMinimize: Iter:   4  F: -425.954392517438237  |grad|_K:  6.594e-05  alpha:  2.625e-01  linmin:  2.795e-04  t[s]:     13.90
	FillingsUpdate:  mu: -0.090961673  nElectrons: 90.000000
	SubspaceRotationAdjust: set factor to 0.406
ElecMinimize: Iter:   5  F: -425.960203154259091  |grad|_K:  2.724e-05  alpha:  5.571e-02  linmin: -5.107e-04  t[s]:     16.46
ElecMinimize: 	Predicted alpha/alphaT>3.000000, increasing alphaT to 1.671298e-01.
	FillingsUpdate:  mu: -0.068826725  nElectrons: 90.000000
	SubspaceRotationAdjust: set factor to 0.277
ElecMinimize: Iter:   6  F: -425.965182358640959  |grad|_K:  2.467e-05  alpha:  2.805e-01  linmin:  5.734e-05  t[s]:     19.80
	FillingsUpdate:  mu: -0.104632744  nElectrons: 90.000000

Dumping 'X.fillings' ... done
Dumping 'X.wfns' ... done
Dumping 'X.force' ... done
Dumping 'X.eigenvals' ... done
	SubspaceRotationAdjust: set factor to 0.227
ElecMinimize: Iter:   7  F: -425.967362648231017  |grad|_K:  1.589e-05  alpha:  1.535e-01  linmin: -5.283e-05  t[s]:     22.56
	FillingsUpdate:  mu: -0.120968675  nElectrons: 90.000000
	SubspaceRotationAdjust: set factor to 0.182
ElecMinimize: Iter:   8  F: -425.968958632695319  |grad|_K:  1.461e-05  alpha:  2.742e-01  linmin:  7.803e-05  t[s]:     25.12
	FillingsUpdate:  mu: -0.100660624  nElectrons: 90.000000
	SubspaceRotationAdjust: set factor to 0.193
ElecMinimize: Iter:   9  F: -425.970266807626729  |grad|_K:  1.257e-05  alpha:  2.700e-01  linmin:  2.765e-05  t[s]:     27.68
	FillingsUpdate:  mu: -0.086231885  nElectrons: 90.000000
	SubspaceRotationAdjust: set factor to 0.19
ElecMinimize: Iter:  10  F: -425.971170269638947  |grad|_K:  1.013e-05  alpha:  2.510e-01  linmin:  2.687e-05  t[s]:     30.24
	FillingsUpdate:  mu: -0.095664942  nElectrons: 90.000000
	SubspaceRotationAdjust: set factor to 0.245
ElecMinimize: Iter:  11  F: -425.971754408909305  |grad|_K:  8.003e-06  alpha:  2.492e-01  linmin:  1.282e-05  t[s]:     32.80
	FillingsUpdate:  mu: -0.106603142  nElectrons: 90.000000
	SubspaceRotationAdjust: set factor to 0.205
ElecMinimize: Iter:  12  F: -425.972091407896244  |grad|_K:  6.181e-06  alpha:  2.300e-01  linmin:  2.005e-05  t[s]:     35.36
	FillingsUpdate:  mu: -0.103470902  nElectrons: 90.000000
	SubspaceRotationAdjust: set factor to 0.258
ElecMinimize: Iter:  13  F: -425.972297143828484  |grad|_K:  4.647e-06  alpha:  2.356e-01  linmin:  2.274e-06  t[s]:     37.92
	FillingsUpdate:  mu: -0.097230355  nElectrons: 90.000000
	SubspaceRotationAdjust: set factor to 0.225
ElecMinimize: Iter:  14  F: -425.972429295409825  |grad|_K:  4.096e-06  alpha:  2.671e-01  linmin:  9.764e-06  t[s]:     40.48
	FillingsUpdate:  mu: -0.099314224  nElectrons: 90.000000

Dumping 'X.fillings' ... done
Dumping 'X.wfns' ... done
Dumping 'X.force' ... done
Dumping 'X.eigenvals' ... done
	SubspaceRotationAdjust: set factor to 0.258
ElecMinimize: Iter:  15  F: -425.972540242001628  |grad|_K:  3.548e-06  alpha:  2.887e-01  linmin:  3.299e-06  t[s]:     43.28
	FillingsUpdate:  mu: -0.103648902  nElectrons: 90.000000
	SubspaceRotationAdjust: set factor to 0.24
ElecMinimize: Iter:  16  F: -425.972628608188700  |grad|_K:  3.455e-06  alpha:  3.063e-01  linmin:  1.641e-05  t[s]:     45.84
	FillingsUpdate:  mu: -0.101123220  nElectrons: 90.000000
	SubspaceRotationAdjust: set factor to 0.255
ElecMinimize: Iter:  17  F: -425.972714826713343  |grad|_K:  3.139e-06  alpha:  3.153e-01  linmin:  6.013e-07  t[s]:     48.40
	FillingsUpdate:  mu: -0.098491101  nElectrons: 90.000000
	SubspaceRotationAdjust: set factor to 0.254
ElecMinimize: Iter:  18  F: -425.972781335495995  |grad|_K:  2.779e-06  alpha:  2.944e-01  linmin: -3.932e-06  t[s]:     50.96
	FillingsUpdate:  mu: -0.101575966  nElectrons: 90.000000
	SubspaceRotationAdjust: set factor to 0.247
ElecMinimize: Iter:  19  F: -425.972831605789565  |grad|_K:  2.396e-06  alpha:  2.839e-01  linmin: -2.199e-06  t[s]:     53.56
	FillingsUpdate:  mu: -0.103278489  nElectrons: 90.000000
	SubspaceRotationAdjust: set factor to 0.267
ElecMinimize: Iter:  20  F: -425.972871982289291  |grad|_K:  2.127e-06  alpha:  3.069e-01  linmin: -7.908e-07  t[s]:     56.12
	FillingsUpdate:  mu: -0.100732667  nElectrons: 90.000000
	SubspaceRotationAdjust: set factor to 0.24
ElecMinimize: Iter:  21  F: -425.972900659068898  |grad|_K:  1.808e-06  alpha:  2.766e-01  linmin: -1.310e-06  t[s]:     58.68
	FillingsUpdate:  mu: -0.100059804  nElectrons: 90.000000
	SubspaceRotationAdjust: set factor to 0.274
ElecMinimize: Iter:  22  F: -425.972924378755749  |grad|_K:  1.590e-06  alpha:  3.166e-01  linmin: -1.239e-09  t[s]:     61.24
	FillingsUpdate:  mu: -0.102158570  nElectrons: 90.000000

Dumping 'X.fillings' ... done
Dumping 'X.wfns' ... done
Dumping 'X.force' ... done
Dumping 'X.eigenvals' ... done
	SubspaceRotationAdjust: set factor to 0.234
ElecMinimize: Iter:  23  F: -425.972940739994158  |grad|_K:  1.349e-06  alpha:  2.822e-01  linmin: -4.115e-07  t[s]:     64.04
	FillingsUpdate:  mu: -0.102158906  nElectrons: 90.000000
	SubspaceRotationAdjust: set factor to 0.266
ElecMinimize: Iter:  24  F: -425.972954524622992  |grad|_K:  1.199e-06  alpha:  3.304e-01  linmin:  1.452e-07  t[s]:     66.59
	FillingsUpdate:  mu: -0.100621733  nElectrons: 90.000000
	SubspaceRotationAdjust: set factor to 0.23
ElecMinimize: Iter:  25  F: -425.972964777625577  |grad|_K:  1.053e-06  alpha:  3.113e-01  linmin: -2.744e-07  t[s]:     69.15
	FillingsUpdate:  mu: -0.101165843  nElectrons: 90.000000
	SubspaceRotationAdjust: set factor to 0.245
ElecMinimize: Iter:  26  F: -425.972973333231096  |grad|_K:  9.500e-07  alpha:  3.364e-01  linmin:  6.670e-07  t[s]:     71.71
	FillingsUpdate:  mu: -0.102093367  nElectrons: 90.000000
	SubspaceRotationAdjust: set factor to 0.236
ElecMinimize: Iter:  27  F: -425.972980660535939  |grad|_K:  8.984e-07  alpha:  3.543e-01  linmin:  3.221e-06  t[s]:     74.27
	FillingsUpdate:  mu: -0.101190324  nElectrons: 90.000000
	SubspaceRotationAdjust: set factor to 0.229
ElecMinimize: Iter:  28  F: -425.972987163733478  |grad|_K:  8.360e-07  alpha:  3.516e-01  linmin:  1.839e-06  t[s]:     76.82
	FillingsUpdate:  mu: -0.100745769  nElectrons: 90.000000
	SubspaceRotationAdjust: set factor to 0.245
ElecMinimize: Iter:  29  F: -425.972992818522755  |grad|_K:  7.676e-07  alpha:  3.531e-01  linmin:  3.608e-06  t[s]:     79.38
	FillingsUpdate:  mu: -0.101628756  nElectrons: 90.000000
	SubspaceRotationAdjust: set factor to 0.225
ElecMinimize: Iter:  30  F: -425.972997563412491  |grad|_K:  7.075e-07  alpha:  3.514e-01  linmin:  5.085e-06  t[s]:     81.95
	FillingsUpdate:  mu: -0.101598740  nElectrons: 90.000000

Dumping 'X.fillings' ... done
Dumping 'X.wfns' ... done
Dumping 'X.force' ... done
Dumping 'X.eigenvals' ... done
	SubspaceRotationAdjust: set factor to 0.249
ElecMinimize: Iter:  31  F: -425.973001523570758  |grad|_K:  6.307e-07  alpha:  3.453e-01  linmin:  1.718e-06  t[s]:     84.72
	FillingsUpdate:  mu: -0.100878955  nElectrons: 90.000000
	SubspaceRotationAdjust: set factor to 0.229
ElecMinimize: Iter:  32  F: -425.973004815086767  |grad|_K:  5.858e-07  alpha:  3.611e-01  linmin:  1.405e-06  t[s]:     87.27
	FillingsUpdate:  mu: -0.101204104  nElectrons: 90.000000
	SubspaceRotationAdjust: set factor to 0.236
ElecMinimize: Iter:  33  F: -425.973007519915996  |grad|_K:  5.257e-07  alpha:  3.440e-01  linmin:  1.684e-06  t[s]:     89.83
	FillingsUpdate:  mu: -0.101594259  nElectrons: 90.000000
	SubspaceRotationAdjust: set factor to 0.233
ElecMinimize: Iter:  34  F: -425.973009967936207  |grad|_K:  5.063e-07  alpha:  3.866e-01  linmin:  1.826e-06  t[s]:     92.38
	FillingsUpdate:  mu: -0.101121032  nElectrons: 90.000000
	SubspaceRotationAdjust: set factor to 0.219
ElecMinimize: Iter:  35  F: -425.973012021691432  |grad|_K:  4.616e-07  alpha:  3.496e-01  linmin:  7.548e-07  t[s]:     94.94
	FillingsUpdate:  mu: -0.101043411  nElectrons: 90.000000
	SubspaceRotationAdjust: set factor to 0.23
ElecMinimize: Iter:  36  F: -425.973013890561674  |grad|_K:  4.376e-07  alpha:  3.828e-01  linmin: -1.348e-07  t[s]:     97.50
	FillingsUpdate:  mu: -0.101490802  nElectrons: 90.000000
	SubspaceRotationAdjust: set factor to 0.215
ElecMinimize: Iter:  37  F: -425.973015490904459  |grad|_K:  4.096e-07  alpha:  3.647e-01  linmin:  8.247e-07  t[s]:    100.06
	FillingsUpdate:  mu: -0.101374557  nElectrons: 90.000000
	SubspaceRotationAdjust: set factor to 0.225
ElecMinimize: Iter:  38  F: -425.973016970920185  |grad|_K:  3.920e-07  alpha:  3.850e-01  linmin: -4.426e-07  t[s]:    102.62
	FillingsUpdate:  mu: -0.101075481  nElectrons: 90.000000

Dumping 'X.fillings' ... done
Dumping 'X.wfns' ... done
Dumping 'X.force' ... done
Dumping 'X.eigenvals' ... done
	SubspaceRotationAdjust: set factor to 0.222
ElecMinimize: Iter:  39  F: -425.973018326885381  |grad|_K:  3.833e-07  alpha:  3.850e-01  linmin:  1.796e-06  t[s]:    105.50
	FillingsUpdate:  mu: -0.101364499  nElectrons: 90.000000
	SubspaceRotationAdjust: set factor to 0.221
ElecMinimize: Iter:  40  F: -425.973019669768803  |grad|_K:  3.820e-07  alpha:  3.988e-01  linmin:  7.954e-07  t[s]:    108.05
	FillingsUpdate:  mu: -0.101505203  nElectrons: 90.000000
	SubspaceRotationAdjust: set factor to 0.23
ElecMinimize: Iter:  41  F: -425.973021038923150  |grad|_K:  3.934e-07  alpha:  4.094e-01  linmin: -3.899e-06  t[s]:    110.61
	FillingsUpdate:  mu: -0.101110563  nElectrons: 90.000000
	SubspaceRotationAdjust: set factor to 0.219
ElecMinimize: Iter:  42  F: -425.973022496996578  |grad|_K:  4.029e-07  alpha:  4.109e-01  linmin: -1.020e-07  t[s]:    113.22
	FillingsUpdate:  mu: -0.101174515  nElectrons: 90.000000
	SubspaceRotationAdjust: set factor to 0.228
ElecMinimize: Iter:  43  F: -425.973024047333695  |grad|_K:  4.189e-07  alpha:  4.167e-01  linmin: -2.857e-07  t[s]:    115.77
	FillingsUpdate:  mu: -0.101546370  nElectrons: 90.000000
	SubspaceRotationAdjust: set factor to 0.219
ElecMinimize: Iter:  44  F: -425.973025728282607  |grad|_K:  4.359e-07  alpha:  4.179e-01  linmin:  1.459e-08  t[s]:    118.33
	FillingsUpdate:  mu: -0.101247992  nElectrons: 90.000000
	SubspaceRotationAdjust: set factor to 0.217
ElecMinimize: Iter:  45  F: -425.973027598064903  |grad|_K:  4.706e-07  alpha:  4.294e-01  linmin: -3.090e-06  t[s]:    120.89
	FillingsUpdate:  mu: -0.101000651  nElectrons: 90.000000
	SubspaceRotationAdjust: set factor to 0.221
ElecMinimize: Iter:  46  F: -425.973029818358498  |grad|_K:  5.080e-07  alpha:  4.372e-01  linmin: -1.308e-06  t[s]:    123.45
	FillingsUpdate:  mu: -0.101504815  nElectrons: 90.000000

Dumping 'X.fillings' ... done
Dumping 'X.wfns' ... done
Dumping 'X.force' ... done
Dumping 'X.eigenvals' ... done
	SubspaceRotationAdjust: set factor to 0.213
ElecMinimize: Iter:  47  F: -425.973032391129095  |grad|_K:  5.583e-07  alpha:  4.349e-01  linmin:  1.527e-05  t[s]:    126.22
	FillingsUpdate:  mu: -0.101565846  nElectrons: 90.000000
	SubspaceRotationAdjust: set factor to 0.226
ElecMinimize: Iter:  48  F: -425.973035223486022  |grad|_K:  5.665e-07  alpha:  3.940e-01  linmin:  1.275e-04  t[s]:    128.78
	FillingsUpdate:  mu: -0.101213471  nElectrons: 90.000000
	SubspaceRotationAdjust: set factor to 0.23
ElecMinimize: Iter:  49  F: -425.973037182978999  |grad|_K:  4.885e-07  alpha:  2.539e-01  linmin: -1.256e-04  t[s]:    131.34
	FillingsUpdate:  mu: -0.101127254  nElectrons: 90.000000
	SubspaceRotationAdjust: set factor to 0.263
ElecMinimize: Iter:  50  F: -425.973038361311978  |grad|_K:  4.320e-07  alpha:  2.077e-01  linmin:  1.525e-04  t[s]:    133.90
	FillingsUpdate:  mu: -0.101303952  nElectrons: 90.000000
	SubspaceRotationAdjust: set factor to 0.31
ElecMinimize: Iter:  51  F: -425.973039244590723  |grad|_K:  4.477e-07  alpha:  2.103e-01  linmin:  1.748e-04  t[s]:    136.47
	FillingsUpdate:  mu: -0.101493445  nElectrons: 90.000000
	SubspaceRotationAdjust: set factor to 0.38
ElecMinimize: Iter:  52  F: -425.973040206560768  |grad|_K:  5.098e-07  alpha:  2.140e-01  linmin:  1.326e-04  t[s]:    139.03
	FillingsUpdate:  mu: -0.101390659  nElectrons: 90.000000
	SubspaceRotationAdjust: set factor to 0.499
ElecMinimize: Iter:  53  F: -425.973041326536134  |grad|_K:  5.688e-07  alpha:  1.908e-01  linmin:  6.661e-05  t[s]:    141.58
	FillingsUpdate:  mu: -0.101103408  nElectrons: 90.000000
	SubspaceRotationAdjust: set factor to 0.574
ElecMinimize: Iter:  54  F: -425.973042578675177  |grad|_K:  6.614e-07  alpha:  1.704e-01  linmin:  3.225e-05  t[s]:    144.19
	FillingsUpdate:  mu: -0.101144765  nElectrons: 90.000000

Dumping 'X.fillings' ... done
Dumping 'X.wfns' ... done
Dumping 'X.force' ... done
Dumping 'X.eigenvals' ... done
	SubspaceRotationAdjust: set factor to 0.681
ElecMinimize: Iter:  55  F: -425.973044097426623  |grad|_K:  7.162e-07  alpha:  1.525e-01  linmin:  7.894e-06  t[s]:    146.95
	FillingsUpdate:  mu: -0.101482040  nElectrons: 90.000000
	SubspaceRotationAdjust: set factor to 0.766
ElecMinimize: Iter:  56  F: -425.973045614524835  |grad|_K:  7.547e-07  alpha:  1.297e-01  linmin: -1.306e-05  t[s]:    149.50
	FillingsUpdate:  mu: -0.101402889  nElectrons: 90.000000
	SubspaceRotationAdjust: set factor to 0.949
ElecMinimize: Iter:  57  F: -425.973047251528158  |grad|_K:  7.252e-07  alpha:  1.251e-01  linmin: -6.578e-05  t[s]:    152.06
	FillingsUpdate:  mu: -0.101035526  nElectrons: 90.000000
	SubspaceRotationAdjust: set factor to 1.05
ElecMinimize: Iter:  58  F: -425.973048684620721  |grad|_K:  7.226e-07  alpha:  1.171e-01  linmin: -8.952e-05  t[s]:    154.62
	FillingsUpdate:  mu: -0.101322856  nElectrons: 90.000000
	SubspaceRotationAdjust: set factor to 1.34
ElecMinimize: Iter:  59  F: -425.973050031890068  |grad|_K:  6.228e-07  alpha:  1.105e-01  linmin: -1.436e-04  t[s]:    157.18
	FillingsUpdate:  mu: -0.101293520  nElectrons: 90.000000
	SubspaceRotationAdjust: set factor to 1.72
ElecMinimize: Iter:  60  F: -425.973051373252133  |grad|_K:  5.572e-07  alpha:  1.428e-01  linmin: -3.903e-04  t[s]:    159.73
	FillingsUpdate:  mu: -0.100922272  nElectrons: 90.000000
	SubspaceRotationAdjust: set factor to 1.57
ElecMinimize: Iter:  61  F: -425.973052527765162  |grad|_K:  6.495e-07  alpha:  1.506e-01  linmin: -1.874e-04  t[s]:    162.29
	FillingsUpdate:  mu: -0.101473089  nElectrons: 90.000000
	SubspaceRotationAdjust: set factor to 1.09
ElecMinimize: Iter:  62  F: -425.973053074579639  |grad|_K:  5.852e-07  alpha:  5.543e-02  linmin:  5.111e-05  t[s]:    164.85
	FillingsUpdate:  mu: -0.101155428  nElectrons: 90.000000

Dumping 'X.fillings' ... done
Dumping 'X.wfns' ... done
Dumping 'X.force' ... done
Dumping 'X.eigenvals' ... done
	SubspaceRotationAdjust: set factor to 0.974
ElecMinimize: Iter:  63  F: -425.973054020871871  |grad|_K:  4.189e-07  alpha:  1.201e-01  linmin: -9.194e-05  t[s]:    167.63
	FillingsUpdate:  mu: -0.101197757  nElectrons: 90.000000
	SubspaceRotationAdjust: set factor to 1
ElecMinimize: Iter:  64  F: -425.973054947890716  |grad|_K:  3.631e-07  alpha:  2.212e-01  linmin: -3.158e-05  t[s]:    170.19
	FillingsUpdate:  mu: -0.101284473  nElectrons: 90.000000
	SubspaceRotationAdjust: set factor to 1.08
ElecMinimize: Iter:  65  F: -425.973055749085233  |grad|_K:  3.945e-07  alpha:  2.623e-01  linmin: -4.277e-06  t[s]:    172.78
	FillingsUpdate:  mu: -0.100867878  nElectrons: 90.000000
	SubspaceRotationAdjust: set factor to 0.969
ElecMinimize: Iter:  66  F: -425.973056548849058  |grad|_K:  5.677e-07  alpha:  2.239e-01  linmin:  4.211e-07  t[s]:    175.34
	FillingsUpdate:  mu: -0.101401607  nElectrons: 90.000000
	SubspaceRotationAdjust: set factor to 0.784
ElecMinimize: Iter:  67  F: -425.973057266534738  |grad|_K:  5.082e-07  alpha:  9.679e-02  linmin: -1.443e-05  t[s]:    177.90
	FillingsUpdate:  mu: -0.101238993  nElectrons: 90.000000
	SubspaceRotationAdjust: set factor to 0.915
ElecMinimize: Iter:  68  F: -425.973058600949003  |grad|_K:  4.925e-07  alpha:  2.276e-01  linmin:  1.269e-04  t[s]:    180.45
	FillingsUpdate:  mu: -0.100957017  nElectrons: 90.000000
	SubspaceRotationAdjust: set factor to 0.947
ElecMinimize: Iter:  69  F: -425.973059854041765  |grad|_K:  5.753e-07  alpha:  2.312e-01  linmin:  1.361e-04  t[s]:    183.01
	FillingsUpdate:  mu: -0.101430101  nElectrons: 90.000000
	SubspaceRotationAdjust: set factor to 0.824
ElecMinimize: Iter:  70  F: -425.973060623883669  |grad|_K:  5.401e-07  alpha:  9.955e-02  linmin: -1.337e-04  t[s]:    185.57
	FillingsUpdate:  mu: -0.101298221  nElectrons: 90.000000

Dumping 'X.fillings' ... done
Dumping 'X.wfns' ... done
Dumping 'X.force' ... done
Dumping 'X.eigenvals' ... done
	SubspaceRotationAdjust: set factor to 1.01
ElecMinimize: Iter:  71  F: -425.973061679426451  |grad|_K:  4.989e-07  alpha:  1.556e-01  linmin:  1.755e-04  t[s]:    188.38
	FillingsUpdate:  mu: -0.100970115  nElectrons: 90.000000
	SubspaceRotationAdjust: set factor to 1.11
ElecMinimize: Iter:  72  F: -425.973062476044618  |grad|_K:  6.064e-07  alpha:  1.467e-01  linmin:  3.058e-05  t[s]:    190.94
	FillingsUpdate:  mu: -0.101357694  nElectrons: 90.000000
	SubspaceRotationAdjust: set factor to 1.27
ElecMinimize: Iter:  73  F: -425.973063392136169  |grad|_K:  6.033e-07  alpha:  1.092e-01  linmin:  1.837e-06  t[s]:    193.50
	FillingsUpdate:  mu: -0.101333745  nElectrons: 90.000000
	SubspaceRotationAdjust: set factor to 1.66
ElecMinimize: Iter:  74  F: -425.973064660240823  |grad|_K:  6.498e-07  alpha:  1.520e-01  linmin: -7.320e-06  t[s]:    196.05
	FillingsUpdate:  mu: -0.100933507  nElectrons: 90.000000
	SubspaceRotationAdjust: set factor to 1.46
ElecMinimize: Iter:  75  F: -425.973065827749622  |grad|_K:  8.165e-07  alpha:  1.211e-01  linmin: -2.642e-05  t[s]:    198.61
	FillingsUpdate:  mu: -0.101494760  nElectrons: 90.000000
	SubspaceRotationAdjust: set factor to 1.4
ElecMinimize: Iter:  76  F: -425.973066815470759  |grad|_K:  7.301e-07  alpha:  6.557e-02  linmin:  2.633e-05  t[s]:    201.17
	FillingsUpdate:  mu: -0.101248054  nElectrons: 90.000000
	SubspaceRotationAdjust: set factor to 1.69
ElecMinimize: Iter:  77  F: -425.973068222237487  |grad|_K:  6.257e-07  alpha:  1.127e-01  linmin: -2.464e-04  t[s]:    203.75
	FillingsUpdate:  mu: -0.101077545  nElectrons: 90.000000
	SubspaceRotationAdjust: set factor to 1.91
ElecMinimize: Iter:  78  F: -425.973069861735667  |grad|_K:  6.530e-07  alpha:  1.694e-01  linmin: -1.499e-04  t[s]:    206.31
	FillingsUpdate:  mu: -0.101709203  nElectrons: 90.000000

Dumping 'X.fillings' ... done
Dumping 'X.wfns' ... done
Dumping 'X.force' ... done
Dumping 'X.eigenvals' ... done
	SubspaceRotationAdjust: set factor to 1.52
ElecMinimize: Iter:  79  F: -425.973070737680985  |grad|_K:  8.876e-07  alpha:  8.622e-02  linmin:  5.121e-06  t[s]:    209.08
	FillingsUpdate:  mu: -0.101187933  nElectrons: 90.000000
	SubspaceRotationAdjust: set factor to 1.21
ElecMinimize: Iter:  80  F: -425.973071876476979  |grad|_K:  5.894e-07  alpha:  6.323e-02  linmin: -4.789e-06  t[s]:    211.63
	FillingsUpdate:  mu: -0.101185944  nElectrons: 90.000000
	SubspaceRotationAdjust: set factor to 1.32
ElecMinimize: Iter:  81  F: -425.973073343494775  |grad|_K:  5.664e-07  alpha:  1.842e-01  linmin:  7.609e-06  t[s]:    214.19
	FillingsUpdate:  mu: -0.101646028  nElectrons: 90.000000
	SubspaceRotationAdjust: set factor to 1.23
ElecMinimize: Iter:  82  F: -425.973074411679363  |grad|_K:  7.136e-07  alpha:  1.456e-01  linmin: -2.813e-06  t[s]:    216.75
	FillingsUpdate:  mu: -0.101097708  nElectrons: 90.000000
	SubspaceRotationAdjust: set factor to 1.02
ElecMinimize: Iter:  83  F: -425.973075285469690  |grad|_K:  6.058e-07  alpha:  7.432e-02  linmin: -1.691e-05  t[s]:    219.31
	FillingsUpdate:  mu: -0.101200399  nElectrons: 90.000000
	SubspaceRotationAdjust: set factor to 1.28
ElecMinimize: Iter:  84  F: -425.973076687049343  |grad|_K:  5.688e-07  alpha:  1.669e-01  linmin:  6.425e-05  t[s]:    221.86
	FillingsUpdate:  mu: -0.101574691  nElectrons: 90.000000
	SubspaceRotationAdjust: set factor to 1.33
ElecMinimize: Iter:  85  F: -425.973077798069085  |grad|_K:  6.655e-07  alpha:  1.513e-01  linmin:  8.743e-06  t[s]:    224.42
	FillingsUpdate:  mu: -0.101075180  nElectrons: 90.000000
	SubspaceRotationAdjust: set factor to 1.17
ElecMinimize: Iter:  86  F: -425.973078540249901  |grad|_K:  5.662e-07  alpha:  7.295e-02  linmin: -1.456e-05  t[s]:    226.98
	FillingsUpdate:  mu: -0.101276348  nElectrons: 90.000000

Dumping 'X.fillings' ... done
Dumping 'X.wfns' ... done
Dumping 'X.force' ... done
Dumping 'X.eigenvals' ... done
	SubspaceRotationAdjust: set factor to 1.36
ElecMinimize: Iter:  87  F: -425.973079442886899  |grad|_K:  4.492e-07  alpha:  1.227e-01  linmin:  8.586e-06  t[s]:    229.79
	FillingsUpdate:  mu: -0.101369829  nElectrons: 90.000000
	SubspaceRotationAdjust: set factor to 1.49
ElecMinimize: Iter:  88  F: -425.973080135562725  |grad|_K:  4.144e-07  alpha:  1.502e-01  linmin: -2.230e-06  t[s]:    232.34
	FillingsUpdate:  mu: -0.101033349  nElectrons: 90.000000
	SubspaceRotationAdjust: set factor to 1.26
ElecMinimize: Iter:  89  F: -425.973080518880522  |grad|_K:  4.605e-07  alpha:  9.740e-02  linmin:  7.145e-07  t[s]:    234.90
	FillingsUpdate:  mu: -0.101327188  nElectrons: 90.000000
	SubspaceRotationAdjust: set factor to 0.977
ElecMinimize: Iter:  90  F: -425.973080863143707  |grad|_K:  3.482e-07  alpha:  7.091e-02  linmin: -1.902e-06  t[s]:    237.46
	FillingsUpdate:  mu: -0.101265579  nElectrons: 90.000000
	SubspaceRotationAdjust: set factor to 1.06
ElecMinimize: Iter:  91  F: -425.973081289586617  |grad|_K:  3.196e-07  alpha:  1.529e-01  linmin: -1.828e-05  t[s]:    240.01
	FillingsUpdate:  mu: -0.101074691  nElectrons: 90.000000
	SubspaceRotationAdjust: set factor to 1.06
ElecMinimize: Iter:  92  F: -425.973081666315238  |grad|_K:  3.567e-07  alpha:  1.601e-01  linmin: -5.774e-06  t[s]:    242.57
	FillingsUpdate:  mu: -0.101353918  nElectrons: 90.000000
	SubspaceRotationAdjust: set factor to 0.929
ElecMinimize: Iter:  93  F: -425.973081968538509  |grad|_K:  3.481e-07  alpha:  1.036e-01  linmin: -1.481e-06  t[s]:    245.13
	FillingsUpdate:  mu: -0.101202599  nElectrons: 90.000000
	SubspaceRotationAdjust: set factor to 1.01
ElecMinimize: Iter:  94  F: -425.973082369860720  |grad|_K:  3.184e-07  alpha:  1.444e-01  linmin: -8.413e-06  t[s]:    247.68
	FillingsUpdate:  mu: -0.101115318  nElectrons: 90.000000

Dumping 'X.fillings' ... done
Dumping 'X.wfns' ... done
Dumping 'X.force' ... done
Dumping 'X.eigenvals' ... done
	SubspaceRotationAdjust: set factor to 1.12
ElecMinimize: Iter:  95  F: -425.973082797212555  |grad|_K:  3.343e-07  alpha:  1.837e-01  linmin: -7.445e-06  t[s]:    250.44
	FillingsUpdate:  mu: -0.101375085  nElectrons: 90.000000
	SubspaceRotationAdjust: set factor to 1.01
ElecMinimize: Iter:  96  F: -425.973083124127186  |grad|_K:  3.682e-07  alpha:  1.275e-01  linmin:  1.582e-06  t[s]:    253.00
	FillingsUpdate:  mu: -0.101111513  nElectrons: 90.000000
	SubspaceRotationAdjust: set factor to 0.874
ElecMinimize: Iter:  97  F: -425.973083450386355  |grad|_K:  3.205e-07  alpha:  1.050e-01  linmin:  5.011e-07  t[s]:    255.57
	FillingsUpdate:  mu: -0.101166645  nElectrons: 90.000000
	SubspaceRotationAdjust: set factor to 0.93
ElecMinimize: Iter:  98  F: -425.973083863825934  |grad|_K:  3.167e-07  alpha:  1.753e-01  linmin: -7.531e-06  t[s]:    258.13
	FillingsUpdate:  mu: -0.101319100  nElectrons: 90.000000
	SubspaceRotationAdjust: set factor to 0.956
ElecMinimize: Iter:  99  F: -425.973084328044479  |grad|_K:  3.753e-07  alpha:  2.013e-01  linmin: -1.518e-05  t[s]:    260.69
	FillingsUpdate:  mu: -0.100965993  nElectrons: 90.000000
	SubspaceRotationAdjust: set factor to 0.875
ElecMinimize: Iter: 100  F: -425.973084823685440  |grad|_K:  4.546e-07  alpha:  1.530e-01  linmin: -1.111e-05  t[s]:    263.30
	FillingsUpdate:  mu: -0.101297926  nElectrons: 90.000000
	SubspaceRotationAdjust: set factor to 0.885
ElecMinimize: Iter: 101  F: -425.973085688808510  |grad|_K:  5.211e-07  alpha:  1.844e-01  linmin:  8.557e-05  t[s]:    265.85
	FillingsUpdate:  mu: -0.101247031  nElectrons: 90.000000
	SubspaceRotationAdjust: set factor to 1.09
ElecMinimize: Iter: 102  F: -425.973086263055166  |grad|_K:  5.409e-07  alpha:  6.365e-02  linmin: -9.130e-04  t[s]:    268.41
	FillingsUpdate:  mu: -0.101003837  nElectrons: 90.000000

Dumping 'X.fillings' ... done
Dumping 'X.wfns' ... done
Dumping 'X.force' ... done
Dumping 'X.eigenvals' ... done
	SubspaceRotationAdjust: set factor to 1.21
ElecMinimize: Iter: 103  F: -425.973086944599629  |grad|_K:  6.053e-07  alpha:  7.718e-02  linmin:  1.144e-03  t[s]:    271.20
	FillingsUpdate:  mu: -0.101004673  nElectrons: 90.000000
	SubspaceRotationAdjust: set factor to 1.23
ElecMinimize: Iter: 104  F: -425.973086988125544  |grad|_K:  6.256e-07  alpha:  7.452e-03  linmin: -4.499e-04  t[s]:    273.76
	FillingsUpdate:  mu: -0.101109446  nElectrons: 90.000000
	SubspaceRotationAdjust: set factor to 1.18
ElecMinimize: Iter: 105  F: -425.973087193615754  |grad|_K:  6.121e-07  alpha:  2.103e-02  linmin:  4.146e-04  t[s]:    276.31
	FillingsUpdate:  mu: -0.101179899  nElectrons: 90.000000
	SubspaceRotationAdjust: set factor to 1.08
ElecMinimize: Iter: 106  F: -425.973087279791059  |grad|_K:  6.113e-07  alpha:  1.140e-02  linmin: -4.615e-05  t[s]:    278.87
	FillingsUpdate:  mu: -0.101252669  nElectrons: 90.000000
	SubspaceRotationAdjust: set factor to 0.931
ElecMinimize: Iter: 107  F: -425.973087396545168  |grad|_K:  6.171e-07  alpha:  1.350e-02  linmin:  8.442e-05  t[s]:    281.43
	FillingsUpdate:  mu: -0.101283752  nElectrons: 90.000000
	SubspaceRotationAdjust: set factor to 0.796
ElecMinimize: Iter: 108  F: -425.973087496829123  |grad|_K:  6.092e-07  alpha:  1.181e-02  linmin:  3.383e-05  t[s]:    283.98
	FillingsUpdate:  mu: -0.101275332  nElectrons: 90.000000
	SubspaceRotationAdjust: set factor to 0.697
ElecMinimize: Iter: 109  F: -425.973087595046366  |grad|_K:  5.911e-07  alpha:  1.170e-02  linmin:  4.040e-05  t[s]:    286.54
	FillingsUpdate:  mu: -0.101236812  nElectrons: 90.000000
	SubspaceRotationAdjust: set factor to 0.632
ElecMinimize: Iter: 110  F: -425.973087685411429  |grad|_K:  5.732e-07  alpha:  1.149e-02  linmin:  3.597e-05  t[s]:    289.10
ElecMinimize: Converged (|Delta F|<1.000000e-07 for 2 iters).
Setting wave functions to eigenvectors of Hamiltonian

# Ionic positions in lattice coordinates:
ion Na   0.000000000000000   0.000000000000000   0.279720000000000 1
ion Na   0.500000000000000   0.500000000000000   0.328670000000000 1
ion Na   0.000000000000000   0.000000000000000   0.377620000000000 1
ion Na   0.500000000000000   0.500000000000000   0.426570000000000 1
ion Na   0.000000000000000   0.000000000000000   0.475520000000000 1
ion Na   0.500000000000000   0.500000000000000   0.524480000000000 1
ion Na   0.000000000000000   0.000000000000000   0.573430000000000 1
ion Na   0.500000000000000   0.500000000000000   0.622380000000000 1
ion Na   0.000000000000000   0.000000000000000   0.671330000000000 1
ion Na   0.500000000000000   0.500000000000000   0.720280000000000 1

# Forces in Lattice coordinates:
force Na   0.000000000000000   0.000000000000000  -0.033736521220968 1
force Na  -0.000000000000000  -0.000000000000000  -0.000709660467990 1
force Na  -0.000000000000000   0.000000000000000  -0.020655852589488 1
force Na  -0.000000000000000   0.000000000000000  -0.026004936854812 1
force Na   0.000000000000000   0.000000000000000  -0.001782402843105 1
force Na   0.000000000000000   0.000000000000000   0.001782402843105 1
force Na  -0.000000000000000   0.000000000000000   0.026004936854357 1
force Na  -0.000000000000000   0.000000000000000   0.020655852589943 1
force Na  -0.000000000000000  -0.000000000000000   0.000709660467080 1
force Na   0.000000000000000   0.000000000000000   0.033736521220967 1

# Energy components:
   Eewald =    -5501.5323757579517405
       EH =    -5160.6577857181546278
     Eloc =    10211.2849518696802988
      Enl =     -129.2642010235457519
   Epulay =       -0.0000014966239967
      Exc =      -62.6020502939723968
       KE =      216.8380858957357304
-------------------------------------
     Etot =     -425.9333765248325108
       TS =        0.0397111605789306
-------------------------------------
        F =     -425.9730876854114285

IonicMinimize: Iter:   0  F: -425.973087685411429  |grad|_K:  1.509e-04  t[s]:    289.46
IonicMinimize: None of the convergence criteria satisfied after 0 iterations.

#--- Lowdin population analysis ---
# oxidation-state Na +0.076 +0.051 +0.047 +0.056 +0.052 +0.052 +0.056 +0.047 +0.051 +0.076


Dumping 'X.fillings' ... done
Dumping 'X.wfns' ... done
Dumping 'X.ionpos' ... done
Dumping 'X.lattice' ... done
Dumping 'X.n' ... done
Dumping 'X.eigenvals' ... done
Dumping 'X.eigStats' ... 
	eMin: -2.063117 at state 0 ( [ +0.000000 +0.000000 +0.000000 ] spin 0 )
	HOMO: -0.101851 at state 10 ( [ +0.090909 +0.454545 +0.000000 ] spin 0 )
	mu  : -0.101237
	LUMO: -0.100970 at state 1 ( [ +0.000000 +0.090909 +0.000000 ] spin 0 )
	eMax: -0.001468 at state 11 ( [ +0.181818 +0.181818 +0.000000 ] spin 0 )
	HOMO-LUMO gap: +0.000881
	Optical gap  : +0.007535 at state 17 ( [ +0.272727 +0.454545 +0.000000 ] spin 0 )
Dumping 'X.dos' ... done.
End date and time: Thu Nov  9 00:22:32 2023  (Duration: 0-0:04:50.64)
Done!

*************** JDFTx 1.7.0  ***************

Start date and time: Thu Nov  9 00:22:34 2023
Executable jdftx with command-line: -m -i X.in -o X.out
Running on hosts (process indices):  ac0369 (0-20)
Divided in process groups (process indices):  0 (0)  1 (1)  2 (2)  3 (3)  4 (4)  5 (5)  6 (6)  7 (7)  8 (8)  9 (9)  10 (10)  11 (11)  12 (12)  13 (13)  14 (14)  15 (15)  16 (16)  17 (17)  18 (18)  19 (19)  20 (20)
Resource initialization completed at t[s]:      0.02
Run totals: 21 processes, 21 threads, 0 GPUs


Input parsed successfully to the following command list (including defaults):

basis kpoint-dependent
cache-projectors no
coords-type Lattice
core-overlap-check vector
coulomb-interaction Slab 001
coulomb-truncation-embed 0 0 0.5
davidson-band-ratio 1.1
density-of-states Etol 1.000000e-06 Esigma 0.000000e+00 \
		Complete \
	Total \
		Occupied \
	Total
dump End State IonicPositions Lattice ElecDensity CoreDensity EigStats DOS
dump Electronic State Forces
dump Ionic State IonicPositions Forces Lattice DOS
dump-interval Electronic 8
dump-interval Ionic 4
dump-name X.$var
elec-cutoff 30
elec-eigen-algo Davidson
elec-ex-corr gga-PBE
elec-smearing Fermi 0.0095
electronic-minimize  \
	dirUpdateScheme      FletcherReeves \
	linminMethod         DirUpdateRecommended \
	nIterations          2000 \
	history              15 \
	knormThreshold       0 \
	energyDiffThreshold  1e-07 \
	nEnergyDiff          2 \
	alphaTstart          1 \
	alphaTmin            1e-10 \
	updateTestStepSize   yes \
	alphaTreduceFactor   0.1 \
	alphaTincreaseFactor 3 \
	nAlphaAdjustMax      3 \
	wolfeEnergy          0.0001 \
	wolfeGradient        0.9 \
	fdTest               no
exchange-regularization WignerSeitzTruncated
fluid None
fluid-ex-corr (null) lda-PZ
fluid-gummel-loop 10 1.000000e-05
fluid-minimize  \
	dirUpdateScheme      PolakRibiere \
	linminMethod         DirUpdateRecommended \
	nIterations          100 \
	history              15 \
	knormThreshold       0 \
	energyDiffThreshold  0 \
	nEnergyDiff          2 \
	alphaTstart          1 \
	alphaTmin            1e-10 \
	updateTestStepSize   yes \
	alphaTreduceFactor   0.1 \
	alphaTincreaseFactor 3 \
	nAlphaAdjustMax      3 \
	wolfeEnergy          0.0001 \
	wolfeGradient        0.9 \
	fdTest               no
fluid-solvent H2O 55.338 ScalarEOS \
	epsBulk 78.4 \
	pMol 0.92466 \
	epsInf 1.77 \
	Pvap 1.06736e-10 \
	sigmaBulk 4.62e-05 \
	Rvdw 2.61727 \
	Res 1.42 \
	tauNuc 343133 \
	poleEl 15 7 1
forces-output-coords Positions
ion Na   0.000000000000000   0.000000000000000   0.279720000000000 1
ion Na   0.500000000000000   0.500000000000000   0.328670000000000 1
ion Na   0.000000000000000   0.000000000000000   0.377620000000000 1
ion Na   0.500000000000000   0.500000000000000   0.426570000000000 1
ion Na   0.000000000000000   0.000000000000000   0.475520000000000 1
ion Na   0.500000000000000   0.500000000000000   0.524480000000000 1
ion Na   0.000000000000000   0.000000000000000   0.573430000000000 1
ion Na   0.500000000000000   0.500000000000000   0.622380000000000 1
ion Na   0.000000000000000   0.000000000000000   0.671330000000000 1
ion Na   0.500000000000000   0.500000000000000   0.720280000000000 1
ion-species SG15/$ID_ONCV_PBE.upf
ion-width 0
ionic-minimize  \
	dirUpdateScheme      L-BFGS \
	linminMethod         DirUpdateRecommended \
	nIterations          0 \
	history              15 \
	knormThreshold       0.0001 \
	energyDiffThreshold  1e-06 \
	nEnergyDiff          2 \
	alphaTstart          1 \
	alphaTmin            1e-10 \
	updateTestStepSize   yes \
	alphaTreduceFactor   0.1 \
	alphaTincreaseFactor 3 \
	nAlphaAdjustMax      3 \
	wolfeEnergy          0.0001 \
	wolfeGradient        0.9 \
	fdTest               no
kpoint   0.000000000000   0.000000000000   0.000000000000  1.00000000000000
kpoint-folding 11 11 1 
latt-move-scale 1 1 1
latt-scale 1 1 1 
lattice  \
	   7.936714821600003   -0.000000000000000   -0.000000000000000  \
	   0.000000000000000    7.936714821600003   -0.000000000000000  \
	   0.000000000000000    0.000000000000000   81.068661108000001 
lattice-minimize  \
	dirUpdateScheme      L-BFGS \
	linminMethod         DirUpdateRecommended \
	nIterations          0 \
	history              15 \
	knormThreshold       0 \
	energyDiffThreshold  1e-06 \
	nEnergyDiff          2 \
	alphaTstart          1 \
	alphaTmin            1e-10 \
	updateTestStepSize   yes \
	alphaTreduceFactor   0.1 \
	alphaTincreaseFactor 3 \
	nAlphaAdjustMax      3 \
	wolfeEnergy          0.0001 \
	wolfeGradient        0.9 \
	fdTest               no
lcao-params -1 1e-06 0.0095
pcm-variant GLSSA13
spintype no-spin
subspace-rotation-factor 1 yes
symmetries automatic
symmetry-threshold 0.0001
wavefunction read X.wfns 50 20.000000



---------- Setting up symmetries ----------

Found 16 point-group symmetries of the bravais lattice
Found 16 space-group symmetries with basis
Applied RMS atom displacement 0 bohrs to make symmetries exact.

---------- Initializing the Grid ----------
R = 
[      7.93671            0            0  ]
[            0      7.93671            0  ]
[            0            0      81.0687  ]
unit cell volume = 5106.63
G =
[   0.791661          0          0  ]
[         -0   0.791661          0  ]
[          0         -0  0.0775045  ]
Minimum fftbox size, Smin = [  40  40  400  ]
Chosen fftbox size, S = [  40  40  400  ]

---------- Exchange Correlation functional ----------
Initalized PBE GGA exchange.
Initalized PBE GGA correlation.

---------- Setting up pseudopotentials ----------
Width of ionic core gaussian charges (only for fluid interactions / plotting) set to 0

Reading pseudopotential file '/net/software/testing/software/jdftx/1.7.0-foss-2021b-mkl/share/jdftx/pseudopotentials/SG15/Na_ONCV_PBE.upf':
  'Na' pseudopotential, 'PBE' functional
  Generated using ONCVPSP code by D. R. Hamann
  Author: Martin Schlipf and Francois Gygi  Date: 150915.
  9 valence electrons, 3 orbitals, 4 projectors, 1992 radial grid points, with lMax = 1
  Transforming local potential to a uniform radial grid of dG=0.02 with 1367 points.
  Transforming nonlocal projectors to a uniform radial grid of dG=0.02 with 528 points.
    2S    l: 0   occupation:  2.0   eigenvalue: -2.085640
    2P    l: 1   occupation:  6.0   eigenvalue: -1.053708
    3S    l: 0   occupation:  1.0   eigenvalue: -0.100838
  Transforming atomic orbitals to a uniform radial grid of dG=0.02 with 528 points.
  Core radius for overlap checks: 2.01 bohrs.
  Reading pulay file /net/software/testing/software/jdftx/1.7.0-foss-2021b-mkl/share/jdftx/pseudopotentials/SG15/Na_ONCV_PBE.pulay ... using dE_dnG = -3.261361e-04 computed for Ecut = 30.

Initialized 1 species with 10 total atoms.

Folded 1 k-points by 11x11x1 to 121 k-points.

---------- Setting up k-points, bands, fillings ----------
Reduced to 21 k-points under symmetry. 
Computing the number of bands and number of electrons
Calculating initial fillings.
nElectrons:  90.000000   nBands: 50   nStates: 21

----- Setting up reduced wavefunction bases (one per k-point) -----
average nbasis = 40077.248 , ideal nbasis = 40078.405

----- Initializing Supercell corresponding to k-point mesh -----
Lattice vector linear combinations in supercell:
[  11   0   0  ]
[   0  11   0  ]
[   0   0   1  ]
Supercell lattice vectors:
[  87.3039  0  0  ]
[  0  87.3039  0  ]
[  0  0  81.0687  ]

---------- Setting up coulomb interaction ----------
Setting up double-sized grid for truncated Coulomb potentials:
R = 
[      7.93671            0            0  ]
[            0      7.93671            0  ]
[            0            0      162.137  ]
unit cell volume = 10213.3
G =
[   0.791661          0          0  ]
[         -0   0.791661          0  ]
[          0         -0  0.0387522  ]
Chosen fftbox size, S = [  40  40  800  ]
Integer grid location selected as the embedding center:
   Grid: [  0  0  200  ]
   Lattice: [  0  0  0.5  ]
   Cartesian: [  0  0  40.5343  ]
Constructing Wigner-Seitz cell: 6 faces (6 quadrilaterals, 0 hexagons)
Range-separation parameter for embedded mesh potentials due to point charges: 0.567945 bohrs.
Initialized slab truncation along lattice direction 001

---------- Setting up 2D ewald sum ----------
Optimum gaussian width for ewald sums = 4.734710 bohr.
Real space sums over 225 unit cells with max indices [  7  7  0  ]
Reciprocal space sums over 81 terms with max indices [  4  4  0  ]

---------- Allocating electronic variables ----------
Initializing wave functions:  reading from 'X.wfns'


---- Citations for features of the code used in this run ----

   Software package:
      R. Sundararaman, K. Letchworth-Weaver, K.A. Schwarz, D. Gunceler, Y. Ozhabes and T.A. Arias, 'JDFTx: software for joint density-functional theory', SoftwareX 6, 278 (2017)

   gga-PBE exchange-correlation functional:
      J.P. Perdew, K. Burke and M. Ernzerhof, Phys. Rev. Lett. 77, 3865 (1996)

   Pseudopotentials:
      M Schlipf and F Gygi, Comput. Phys. Commun. 196, 36 (2015)

   Truncated Coulomb potentials:
      R. Sundararaman and T.A. Arias, Phys. Rev. B 87, 165122 (2013)

   Total energy minimization with Auxiliary Hamiltonian:
      C. Freysoldt, S. Boeck, and J. Neugebauer, Phys. Rev. B 79, 241103(R) (2009)

   Linear-tetrahedron sampling for density of states:
      G. Lehmann and M. Taut, Phys. status solidi (b) 54, 469 (1972)

This list may not be complete. Please suggest additional citations or
report any other bugs at https://github.com/shankar1729/jdftx/issues

Initialization completed successfully at t[s]:      0.95


Setting the auxilliary hamiltonian equal to the subspace hamiltonian.

-------- Electronic minimization -----------
	FillingsUpdate:  mu: -0.054572250  nElectrons: 90.000000
ElecMinimize: Iter:   0  F: -425.947963091519910  |grad|_K:  6.921e-05  alpha:  1.000e+00
	FillingsUpdate:  mu: -0.126152157  nElectrons: 90.000000
	SubspaceRotationAdjust: set factor to 1.12
ElecMinimize: Iter:   1  F: -425.963572899149142  |grad|_K:  3.844e-05  alpha:  5.653e-02  linmin: -2.262e-03  t[s]:     13.02
	FillingsUpdate:  mu: -0.164108077  nElectrons: 90.000000
	SubspaceRotationAdjust: set factor to 0.571
ElecMinimize: Iter:   2  F: -425.975349072792426  |grad|_K:  4.278e-05  alpha:  1.417e-01  linmin:  6.143e-04  t[s]:     18.37
	FillingsUpdate:  mu: -0.117560798  nElectrons: 90.000000
	SubspaceRotationAdjust: set factor to 0.739
ElecMinimize: Iter:   3  F: -425.979280330768120  |grad|_K:  2.001e-05  alpha:  5.257e-02  linmin: -2.086e-05  t[s]:     23.71
	FillingsUpdate:  mu: -0.066883894  nElectrons: 90.000000
	SubspaceRotationAdjust: set factor to 0.494
ElecMinimize: Iter:   4  F: -425.981694419948496  |grad|_K:  2.796e-05  alpha:  1.453e-01  linmin:  5.025e-05  t[s]:     29.09
	FillingsUpdate:  mu: -0.047753466  nElectrons: 90.000000
	SubspaceRotationAdjust: set factor to 0.28
ElecMinimize: Iter:   5  F: -425.987756614003501  |grad|_K:  3.148e-05  alpha:  2.186e-01  linmin:  3.158e-04  t[s]:     34.45
	FillingsUpdate:  mu: -0.064201222  nElectrons: 90.000000
	SubspaceRotationAdjust: set factor to 0.223
ElecMinimize: Iter:   6  F: -425.988943060991915  |grad|_K:  1.960e-05  alpha:  2.787e-02  linmin: -2.874e-04  t[s]:     39.76
	FillingsUpdate:  mu: -0.095406694  nElectrons: 90.000000

Dumping 'X.fillings' ... done
Dumping 'X.wfns' ... done
Dumping 'X.force' ... done
Dumping 'X.eigenvals' ... done
	SubspaceRotationAdjust: set factor to 0.298
ElecMinimize: Iter:   7  F: -425.990154102091026  |grad|_K:  1.017e-05  alpha:  6.092e-02  linmin:  1.047e-04  t[s]:     45.41
	FillingsUpdate:  mu: -0.106159281  nElectrons: 90.000000
	SubspaceRotationAdjust: set factor to 0.318
ElecMinimize: Iter:   8  F: -425.990423340862037  |grad|_K:  7.847e-06  alpha:  6.685e-02  linmin:  1.239e-05  t[s]:     50.74
	FillingsUpdate:  mu: -0.108135970  nElectrons: 90.000000
	SubspaceRotationAdjust: set factor to 0.184
ElecMinimize: Iter:   9  F: -425.990610776494350  |grad|_K:  6.335e-06  alpha:  7.263e-02  linmin:  4.528e-06  t[s]:     56.09
	FillingsUpdate:  mu: -0.103102543  nElectrons: 90.000000
	SubspaceRotationAdjust: set factor to 0.137
ElecMinimize: Iter:  10  F: -425.990720898882103  |grad|_K:  3.814e-06  alpha:  6.519e-02  linmin:  6.105e-06  t[s]:     61.42
	FillingsUpdate:  mu: -0.095915178  nElectrons: 90.000000
	SubspaceRotationAdjust: set factor to 0.193
ElecMinimize: Iter:  11  F: -425.990795377635891  |grad|_K:  3.372e-06  alpha:  1.216e-01  linmin: -1.415e-06  t[s]:     66.74
	FillingsUpdate:  mu: -0.089524654  nElectrons: 90.000000
	SubspaceRotationAdjust: set factor to 0.133
	SubspaceRotationAdjust: resetting CG because factor has changed by 0.133389
ElecMinimize: 	State modified externally: resetting search direction.
ElecMinimize: Iter:  12  F: -425.990870198053244  |grad|_K:  3.385e-06  alpha:  1.562e-01
	FillingsUpdate:  mu: -0.098264837  nElectrons: 90.000000
	SubspaceRotationAdjust: set factor to 0.0966
ElecMinimize: Iter:  13  F: -425.991013217201782  |grad|_K:  1.926e-06  alpha:  2.963e-01  linmin: -1.225e-05  t[s]:     80.57
ElecMinimize: 	Predicted alpha/alphaT>3.000000, increasing alphaT to 8.888308e-01.
	FillingsUpdate:  mu: -0.104352728  nElectrons: 90.000000
	SubspaceRotationAdjust: set factor to 0.118
ElecMinimize: Iter:  14  F: -425.991258909330952  |grad|_K:  3.312e-06  alpha:  1.570e+00  linmin: -5.188e-06  t[s]:     87.52
	FillingsUpdate:  mu: -0.104727611  nElectrons: 90.000000

Dumping 'X.fillings' ... done
Dumping 'X.wfns' ... done
Dumping 'X.force' ... done
Dumping 'X.eigenvals' ... done
	SubspaceRotationAdjust: set factor to 0.153
ElecMinimize: Iter:  15  F: -425.991562690464320  |grad|_K:  2.119e-06  alpha:  6.723e-01  linmin:  4.190e-05  t[s]:     93.27
	FillingsUpdate:  mu: -0.101675814  nElectrons: 90.000000
	SubspaceRotationAdjust: set factor to 0.156
ElecMinimize: Iter:  16  F: -425.991627658284017  |grad|_K:  1.096e-06  alpha:  3.501e-01  linmin:  1.060e-05  t[s]:     98.59
	FillingsUpdate:  mu: -0.103363534  nElectrons: 90.000000
	SubspaceRotationAdjust: set factor to 0.177
ElecMinimize: Iter:  17  F: -425.991661850959758  |grad|_K:  1.004e-06  alpha:  6.768e-01  linmin: -4.172e-06  t[s]:    103.92
	FillingsUpdate:  mu: -0.102730173  nElectrons: 90.000000
	SubspaceRotationAdjust: set factor to 0.191
ElecMinimize: Iter:  18  F: -425.991686622231441  |grad|_K:  7.819e-07  alpha:  5.836e-01  linmin: -3.422e-06  t[s]:    109.25
	FillingsUpdate:  mu: -0.102239935  nElectrons: 90.000000
	SubspaceRotationAdjust: set factor to 0.226
ElecMinimize: Iter:  19  F: -425.991697011683641  |grad|_K:  5.134e-07  alpha:  4.034e-01  linmin: -2.634e-07  t[s]:    114.58
	FillingsUpdate:  mu: -0.102300384  nElectrons: 90.000000
	SubspaceRotationAdjust: set factor to 0.254
ElecMinimize: Iter:  20  F: -425.991701896163306  |grad|_K:  3.969e-07  alpha:  4.402e-01  linmin: -5.828e-06  t[s]:    119.93
	FillingsUpdate:  mu: -0.101228818  nElectrons: 90.000000
	SubspaceRotationAdjust: set factor to 0.247
ElecMinimize: Iter:  21  F: -425.991704786081755  |grad|_K:  2.722e-07  alpha:  4.355e-01  linmin: -5.825e-06  t[s]:    125.26
	FillingsUpdate:  mu: -0.101277596  nElectrons: 90.000000
	SubspaceRotationAdjust: set factor to 0.229
ElecMinimize: Iter:  22  F: -425.991706173541218  |grad|_K:  2.104e-07  alpha:  4.446e-01  linmin: -2.243e-06  t[s]:    130.59
	FillingsUpdate:  mu: -0.100759833  nElectrons: 90.000000

Dumping 'X.fillings' ... done
Dumping 'X.wfns' ... done
Dumping 'X.force' ... done
Dumping 'X.eigenvals' ... done
	SubspaceRotationAdjust: set factor to 0.219
ElecMinimize: Iter:  23  F: -425.991707259412465  |grad|_K:  2.316e-07  alpha:  5.827e-01  linmin:  9.058e-06  t[s]:    136.31
	FillingsUpdate:  mu: -0.101262945  nElectrons: 90.000000
	SubspaceRotationAdjust: set factor to 0.199
[...]
	SubspaceRotationAdjust: set factor to 0.257
ElecMinimize: Iter:  14  F: -425.981005970318051  |grad|_K:  5.584e-08  alpha:  3.484e-01  linmin: -1.202e-05  t[s]:   3604.38
	FillingsUpdate:  mu: -0.096400272  nElectrons: 90.000000

Dumping 'X.fillings' ... done
Dumping 'X.wfns' ... done
Dumping 'X.ionpos' ... done
Dumping 'X.force' ... done
Dumping 'X.eigenvals' ... done
	SubspaceRotationAdjust: set factor to 0.3
ElecMinimize: Iter:  15  F: -425.981006089999141  |grad|_K:  4.482e-08  alpha:  4.224e-01  linmin: -6.973e-06  t[s]:   3617.45
	FillingsUpdate:  mu: -0.096523521  nElectrons: 90.000000
	SubspaceRotationAdjust: set factor to 0.283
ElecMinimize: Iter:  16  F: -425.981006160596337  |grad|_K:  4.314e-08  alpha:  3.885e-01  linmin: -7.123e-06  t[s]:   3629.86
	FillingsUpdate:  mu: -0.096410865  nElectrons: 90.000000
	SubspaceRotationAdjust: set factor to 0.24
ElecMinimize: Iter:  17  F: -425.981006218467371  |grad|_K:  3.740e-08  alpha:  3.428e-01  linmin:  5.715e-06  t[s]:   3642.26
	FillingsUpdate:  mu: -0.096483446  nElectrons: 90.000000
	SubspaceRotationAdjust: set factor to 0.244
ElecMinimize: Iter:  18  F: -425.981006272472371  |grad|_K:  3.102e-08  alpha:  4.270e-01  linmin: -1.251e-05  t[s]:   3654.68
	FillingsUpdate:  mu: -0.096529858  nElectrons: 90.000000
	SubspaceRotationAdjust: set factor to 0.257
ElecMinimize: Iter:  19  F: -425.981006312681188  |grad|_K:  2.727e-08  alpha:  4.604e-01  linmin:  1.193e-05  t[s]:   3667.08
	FillingsUpdate:  mu: -0.096457335  nElectrons: 90.000000
	SubspaceRotationAdjust: set factor to 0.224
ElecMinimize: Iter:  20  F: -425.981006337704343  |grad|_K:  2.235e-08  alpha:  3.731e-01  linmin:  9.851e-06  t[s]:   3679.52
	FillingsUpdate:  mu: -0.096501339  nElectrons: 90.000000
	SubspaceRotationAdjust: set factor to 0.217
ElecMinimize: Iter:  21  F: -425.981006353507382  |grad|_K:  1.600e-08  alpha:  3.522e-01  linmin:  2.842e-05  t[s]:   3691.92
	FillingsUpdate:  mu: -0.096489133  nElectrons: 90.000000
	SubspaceRotationAdjust: set factor to 0.249
ElecMinimize: Iter:  22  F: -425.981006362478524  |grad|_K:  1.199e-08  alpha:  3.888e-01  linmin: -8.102e-05  t[s]:   3704.31
	FillingsUpdate:  mu: -0.096460448  nElectrons: 90.000000

Dumping 'X.fillings' ... done
Dumping 'X.wfns' ... done
Dumping 'X.ionpos' ... done
Dumping 'X.force' ... done
Dumping 'X.eigenvals' ... done
	SubspaceRotationAdjust: set factor to 0.252
ElecMinimize: Iter:  23  F: -425.981006368233693  |grad|_K:  1.095e-08  alpha:  4.380e-01  linmin:  9.478e-04  t[s]:   3717.67
ElecMinimize: Converged (|Delta F|<1.000000e-08 for 2 iters).
Setting wave functions to eigenvectors of Hamiltonian
Converging empty states (this may take a while): |deigs|: 1.401e-07

# Ionic positions in lattice coordinates:
ion Na   0.000000000000000   0.000000000000000   0.281842203601141 1
ion Na   0.500000000000000   0.500000000000000   0.330393749830523 1
ion Na  -0.000000000000000  -0.000000000000000   0.378401230498305 1
ion Na   0.500000000000000   0.500000000000000   0.426695565170028 1
ion Na  -0.000000000000000   0.000000000000000   0.475570478927787 1
ion Na   0.500000000000000   0.500000000000000   0.524429521072213 1
ion Na  -0.000000000000000   0.000000000000000   0.573304434829972 1
ion Na   0.500000000000000   0.500000000000000   0.621598769501695 1
ion Na  -0.000000000000000   0.000000000000000   0.669606250169478 1
ion Na   0.500000000000000   0.500000000000000   0.718157796398859 1

# Forces in Lattice coordinates:
force Na  -0.000000000000000  -0.000000000000000  -0.000887354512296 1
force Na   0.000000000000000  -0.000000000000000   0.001877056624890 1
force Na   0.000000000000000  -0.000000000000000  -0.000869752376972 1
force Na  -0.000000000000000   0.000000000000000   0.006396791202711 1
force Na  -0.000000000000000   0.000000000000000   0.001819744492056 1
force Na  -0.000000000000000   0.000000000000000  -0.001819744492056 1
force Na   0.000000000000000   0.000000000000000  -0.006396791202711 1
force Na   0.000000000000000  -0.000000000000000   0.000869752377426 1
force Na   0.000000000000000   0.000000000000000  -0.001877056624890 1
force Na  -0.000000000000000   0.000000000000000   0.000887354512296 1

# Energy components:
   Eewald =    -5455.3423260899708112
       EH =    -5113.9274706598198463
     Eloc =    10118.3064932534871332
      Enl =     -129.3118807476321876
   Epulay =       -0.0000000029753984
      Exc =      -62.6213082640435559
       KE =      216.9157388504989967
-------------------------------------
     Etot =     -425.9807536604565712
       TS =        0.0002527077771346
-------------------------------------
        F =     -425.9810063682336931

IonicMinimize: Iter:   8  F: -425.981006368233693  |grad|_K:  2.236e-05  alpha:  1.000e+00  linmin: -4.431e-01  t[s]:   3733.97

#--- Lowdin population analysis ---
# oxidation-state Na +0.055 +0.048 +0.029 +0.049 +0.038 +0.038 +0.049 +0.029 +0.048 +0.055


-------- Electronic minimization -----------
	FillingsUpdate:  mu: -0.148055993  nElectrons: 90.000000
ElecMinimize: Iter:   0  F: -425.855340470260955  |grad|_K:  8.072e-05  alpha:  1.000e+00
	FillingsUpdate:  mu: -0.035865477  nElectrons: 90.000000
	SubspaceRotationAdjust: set factor to 0.141
ElecMinimize: Iter:   1  F: -425.972195476963350  |grad|_K:  1.986e-05  alpha:  2.026e-01  linmin:  1.106e-02  t[s]:   3755.48
	FillingsUpdate:  mu: -0.109005699  nElectrons: 90.000000
	SubspaceRotationAdjust: set factor to 0.0634
ElecMinimize: Iter:   2  F: -425.979236424547594  |grad|_K:  6.897e-06  alpha:  2.007e-01  linmin:  1.957e-03  t[s]:   3767.90
	FillingsUpdate:  mu: -0.105005833  nElectrons: 90.000000
	SubspaceRotationAdjust: set factor to 0.104
ElecMinimize: Iter:   3  F: -425.980631283105083  |grad|_K:  2.829e-06  alpha:  3.362e-01  linmin: -1.727e-05  t[s]:   3780.29
	FillingsUpdate:  mu: -0.098792418  nElectrons: 90.000000
	SubspaceRotationAdjust: set factor to 0.123
ElecMinimize: Iter:   4  F: -425.980889655344129  |grad|_K:  1.262e-06  alpha:  3.564e-01  linmin: -3.054e-05  t[s]:   3792.69
	FillingsUpdate:  mu: -0.096295547  nElectrons: 90.000000
	SubspaceRotationAdjust: set factor to 0.14
ElecMinimize: Iter:   5  F: -425.980944931373529  |grad|_K:  6.432e-07  alpha:  3.832e-01  linmin: -6.879e-06  t[s]:   3805.11
	FillingsUpdate:  mu: -0.096780621  nElectrons: 90.000000
	SubspaceRotationAdjust: set factor to 0.192
ElecMinimize: Iter:   6  F: -425.980963156621215  |grad|_K:  4.588e-07  alpha:  4.863e-01  linmin:  5.888e-07  t[s]:   3817.52
	FillingsUpdate:  mu: -0.096714468  nElectrons: 90.000000

Dumping 'X.fillings' ... done
Dumping 'X.wfns' ... done
Dumping 'X.ionpos' ... done
Dumping 'X.force' ... done
Dumping 'X.eigenvals' ... done
	SubspaceRotationAdjust: set factor to 0.242
ElecMinimize: Iter:   7  F: -425.980974295574697  |grad|_K:  4.473e-07  alpha:  5.844e-01  linmin:  1.261e-07  t[s]:   3830.75
	FillingsUpdate:  mu: -0.095781871  nElectrons: 90.000000
	SubspaceRotationAdjust: set factor to 0.291
ElecMinimize: Iter:   8  F: -425.980985436245248  |grad|_K:  4.374e-07  alpha:  6.147e-01  linmin: -2.087e-06  t[s]:   3843.15
	FillingsUpdate:  mu: -0.096488532  nElectrons: 90.000000
	SubspaceRotationAdjust: set factor to 0.339
ElecMinimize: Iter:   9  F: -425.980995554423203  |grad|_K:  4.134e-07  alpha:  5.835e-01  linmin:  1.413e-06  t[s]:   3855.55
	FillingsUpdate:  mu: -0.095917864  nElectrons: 90.000000
	SubspaceRotationAdjust: set factor to 0.331
ElecMinimize: Iter:  10  F: -425.981001424544957  |grad|_K:  3.196e-07  alpha:  3.798e-01  linmin:  7.392e-08  t[s]:   3867.94
	FillingsUpdate:  mu: -0.096999651  nElectrons: 90.000000
	SubspaceRotationAdjust: set factor to 0.231
ElecMinimize: Iter:  11  F: -425.981003892901924  |grad|_K:  2.269e-07  alpha:  2.666e-01  linmin:  4.122e-07  t[s]:   3880.34
	FillingsUpdate:  mu: -0.096514904  nElectrons: 90.000000
	SubspaceRotationAdjust: set factor to 0.171
ElecMinimize: Iter:  12  F: -425.981005099300319  |grad|_K:  1.305e-07  alpha:  2.587e-01  linmin: -6.873e-07  t[s]:   3892.78
	FillingsUpdate:  mu: -0.096558233  nElectrons: 90.000000
	SubspaceRotationAdjust: set factor to 0.199
ElecMinimize: Iter:  13  F: -425.981005749331985  |grad|_K:  9.554e-08  alpha:  4.218e-01  linmin:  5.255e-06  t[s]:   3905.18
	FillingsUpdate:  mu: -0.096647033  nElectrons: 90.000000
	SubspaceRotationAdjust: set factor to 0.213
ElecMinimize: Iter:  14  F: -425.981006100130344  |grad|_K:  7.453e-08  alpha:  4.247e-01  linmin:  1.471e-06  t[s]:   3917.58
	FillingsUpdate:  mu: -0.096454764  nElectrons: 90.000000

Dumping 'X.fillings' ... done
Dumping 'X.wfns' ... done
Dumping 'X.ionpos' ... done
Dumping 'X.force' ... done
Dumping 'X.eigenvals' ... done
	SubspaceRotationAdjust: set factor to 0.234
ElecMinimize: Iter:  15  F: -425.981006318233369  |grad|_K:  5.508e-08  alpha:  4.334e-01  linmin: -1.885e-05  t[s]:   3930.53
	FillingsUpdate:  mu: -0.096454989  nElectrons: 90.000000
	SubspaceRotationAdjust: set factor to 0.285
ElecMinimize: Iter:  16  F: -425.981006429524598  |grad|_K:  4.268e-08  alpha:  4.044e-01  linmin:  1.857e-06  t[s]:   3942.98
	FillingsUpdate:  mu: -0.096458255  nElectrons: 90.000000
	SubspaceRotationAdjust: set factor to 0.349
ElecMinimize: Iter:  17  F: -425.981006510261352  |grad|_K:  3.798e-08  alpha:  4.875e-01  linmin: -2.351e-05  t[s]:   3955.38
	FillingsUpdate:  mu: -0.096409838  nElectrons: 90.000000
	SubspaceRotationAdjust: set factor to 0.381
ElecMinimize: Iter:  18  F: -425.981006578043207  |grad|_K:  4.002e-08  alpha:  5.179e-01  linmin:  4.680e-06  t[s]:   3967.76
	FillingsUpdate:  mu: -0.096538465  nElectrons: 90.000000
	SubspaceRotationAdjust: set factor to 0.325
ElecMinimize: Iter:  19  F: -425.981006627207023  |grad|_K:  3.726e-08  alpha:  3.386e-01  linmin: -2.238e-06  t[s]:   3980.20
	FillingsUpdate:  mu: -0.096456289  nElectrons: 90.000000
	SubspaceRotationAdjust: set factor to 0.232
ElecMinimize: Iter:  20  F: -425.981006657838975  |grad|_K:  2.713e-08  alpha:  2.444e-01  linmin:  1.063e-06  t[s]:   3992.61
	FillingsUpdate:  mu: -0.096503933  nElectrons: 90.000000
	SubspaceRotationAdjust: set factor to 0.235
ElecMinimize: Iter:  21  F: -425.981006681187409  |grad|_K:  1.861e-08  alpha:  3.541e-01  linmin:  4.484e-05  t[s]:   4005.00
	FillingsUpdate:  mu: -0.096518752  nElectrons: 90.000000
	SubspaceRotationAdjust: set factor to 0.249
ElecMinimize: Iter:  22  F: -425.981006693417385  |grad|_K:  1.511e-08  alpha:  3.957e-01  linmin: -4.275e-05  t[s]:   4017.41
	FillingsUpdate:  mu: -0.096485560  nElectrons: 90.000000

Dumping 'X.fillings' ... done
Dumping 'X.wfns' ... done
Dumping 'X.ionpos' ... done
Dumping 'X.force' ... done
Dumping 'X.eigenvals' ... done
	SubspaceRotationAdjust: set factor to 0.25
ElecMinimize: Iter:  23  F: -425.981006702003526  |grad|_K:  1.291e-08  alpha:  4.098e-01  linmin: -4.367e-05  t[s]:   4030.51
	FillingsUpdate:  mu: -0.096502139  nElectrons: 90.000000
	SubspaceRotationAdjust: set factor to 0.26
ElecMinimize: Iter:  24  F: -425.981006708114478  |grad|_K:  1.120e-08  alpha:  4.006e-01  linmin:  3.460e-04  t[s]:   4042.92
ElecMinimize: Converged (|Delta F|<1.000000e-08 for 2 iters).
Setting wave functions to eigenvectors of Hamiltonian
Converging empty states (this may take a while): |deigs|: 3.217e-08

# Ionic positions in lattice coordinates:
ion Na   0.000000000000000   0.000000000000000   0.281923615412768 1
ion Na   0.500000000000000   0.500000000000000   0.330538320969320 1
ion Na  -0.000000000000000  -0.000000000000000   0.378564787536414 1
ion Na   0.500000000000000   0.500000000000000   0.427030256846654 1
ion Na  -0.000000000000000   0.000000000000000   0.475679126676353 1
ion Na   0.500000000000000   0.500000000000000   0.524320873323647 1
ion Na   0.000000000000000   0.000000000000000   0.572969743153346 1
ion Na   0.500000000000000   0.500000000000000   0.621435212463586 1
ion Na  -0.000000000000000   0.000000000000000   0.669461679030681 1
ion Na   0.500000000000000   0.500000000000000   0.718076384587233 1

# Forces in Lattice coordinates:
force Na   0.000000000000000  -0.000000000000000   0.000577838522403 1
force Na  -0.000000000000000  -0.000000000000000  -0.000241553551815 1
force Na  -0.000000000000000   0.000000000000000  -0.000443186478899 1
force Na   0.000000000000000  -0.000000000000000  -0.006713295513812 1
force Na  -0.000000000000000  -0.000000000000000   0.000090831312580 1
force Na   0.000000000000000   0.000000000000000  -0.000090831312466 1
force Na   0.000000000000000   0.000000000000000   0.006713295514039 1
force Na  -0.000000000000000  -0.000000000000000   0.000443186478899 1
force Na  -0.000000000000000  -0.000000000000000   0.000241553552724 1
force Na   0.000000000000000  -0.000000000000000  -0.000577838522402 1

# Energy components:
   Eewald =    -5450.5384046077278981
       EH =    -5109.1239230126457187
     Eloc =    10108.6988314694917790
      Enl =     -129.3119448572946908
   Epulay =       -0.0000000029753984
      Exc =      -62.6215287375723051
       KE =      216.9162130431228945
-------------------------------------
     Etot =     -425.9807567056014932
       TS =        0.0002500025129902
-------------------------------------
        F =     -425.9810067081144780

IonicMinimize: Iter:   9  F: -425.981006708114478  |grad|_K:  2.152e-05  alpha:  1.000e+00  linmin:  8.056e-01  t[s]:   4056.65

#--- Lowdin population analysis ---
# oxidation-state Na +0.055 +0.049 +0.029 +0.049 +0.037 +0.037 +0.049 +0.029 +0.049 +0.055


-------- Electronic minimization -----------
	FillingsUpdate:  mu: -0.095595114  nElectrons: 90.000000
ElecMinimize: Iter:   0  F: -425.980980188143860  |grad|_K:  1.005e-06  alpha:  1.000e+00
	FillingsUpdate:  mu: -0.097669478  nElectrons: 90.000000
	SubspaceRotationAdjust: set factor to 0.148
ElecMinimize: Iter:   1  F: -425.981003508570438  |grad|_K:  3.715e-07  alpha:  2.554e-01  linmin:  2.989e-04  t[s]:   4078.40
	FillingsUpdate:  mu: -0.096385302  nElectrons: 90.000000
	SubspaceRotationAdjust: set factor to 0.0798
ElecMinimize: Iter:   2  F: -425.981005842749425  |grad|_K:  1.359e-07  alpha:  1.870e-01  linmin: -3.034e-06  t[s]:   4090.78
	FillingsUpdate:  mu: -0.096341697  nElectrons: 90.000000
	SubspaceRotationAdjust: set factor to 0.108
ElecMinimize: Iter:   3  F: -425.981006545676166  |grad|_K:  8.005e-08  alpha:  4.201e-01  linmin: -6.056e-05  t[s]:   4103.20
	FillingsUpdate:  mu: -0.096536517  nElectrons: 90.000000
	SubspaceRotationAdjust: set factor to 0.102
ElecMinimize: Iter:   4  F: -425.981006841816168  |grad|_K:  5.233e-08  alpha:  5.100e-01  linmin:  7.492e-05  t[s]:   4115.59
	FillingsUpdate:  mu: -0.096522529  nElectrons: 90.000000
	SubspaceRotationAdjust: set factor to 0.11
ElecMinimize: Iter:   5  F: -425.981006997841007  |grad|_K:  4.342e-08  alpha:  6.281e-01  linmin: -2.671e-04  t[s]:   4128.01
	FillingsUpdate:  mu: -0.096451095  nElectrons: 90.000000
	SubspaceRotationAdjust: set factor to 0.114
ElecMinimize: Iter:   6  F: -425.981007100523414  |grad|_K:  3.598e-08  alpha:  6.003e-01  linmin:  7.264e-05  t[s]:   4140.41
	FillingsUpdate:  mu: -0.096424866  nElectrons: 90.000000

Dumping 'X.fillings' ... done
Dumping 'X.wfns' ... done
Dumping 'X.ionpos' ... done
Dumping 'X.force' ... done
Dumping 'X.eigenvals' ... done
	SubspaceRotationAdjust: set factor to 0.122
ElecMinimize: Iter:   7  F: -425.981007170340831  |grad|_K:  2.993e-08  alpha:  5.953e-01  linmin: -1.274e-04  t[s]:   4154.99
	FillingsUpdate:  mu: -0.096490739  nElectrons: 90.000000
	SubspaceRotationAdjust: set factor to 0.126
ElecMinimize: Iter:   8  F: -425.981007215265038  |grad|_K:  2.291e-08  alpha:  5.522e-01  linmin:  3.023e-05  t[s]:   4167.39
	FillingsUpdate:  mu: -0.096502397  nElectrons: 90.000000
	SubspaceRotationAdjust: set factor to 0.135
ElecMinimize: Iter:   9  F: -425.981007240082590  |grad|_K:  1.891e-08  alpha:  5.231e-01  linmin:  2.418e-05  t[s]:   4179.78
	FillingsUpdate:  mu: -0.096484946  nElectrons: 90.000000
	SubspaceRotationAdjust: set factor to 0.136
ElecMinimize: Iter:  10  F: -425.981007255329985  |grad|_K:  1.519e-08  alpha:  4.655e-01  linmin: -8.716e-05  t[s]:   4192.20
	FillingsUpdate:  mu: -0.096494647  nElectrons: 90.000000
	SubspaceRotationAdjust: set factor to 0.144
ElecMinimize: Iter:  11  F: -425.981007266342772  |grad|_K:  1.277e-08  alpha:  5.213e-01  linmin: -5.613e-04  t[s]:   4204.59
	FillingsUpdate:  mu: -0.096502789  nElectrons: 90.000000
	SubspaceRotationAdjust: set factor to 0.149
ElecMinimize: Iter:  12  F: -425.981007274252306  |grad|_K:  1.091e-08  alpha:  5.317e-01  linmin:  2.594e-05  t[s]:   4216.98
	FillingsUpdate:  mu: -0.096487839  nElectrons: 90.000000
	SubspaceRotationAdjust: set factor to 0.152
ElecMinimize: Iter:  13  F: -425.981007279538289  |grad|_K:  8.896e-09  alpha:  4.934e-01  linmin:  6.636e-05  t[s]:   4229.37
ElecMinimize: Converged (|Delta F|<1.000000e-08 for 2 iters).
Setting wave functions to eigenvectors of Hamiltonian
Converging empty states (this may take a while): |deigs|: 1.581e-08

# Ionic positions in lattice coordinates:
ion Na   0.000000000000000   0.000000000000000   0.281898819046828 1
ion Na   0.500000000000000   0.500000000000000   0.330484047396670 1
ion Na  -0.000000000000000  -0.000000000000000   0.378476417158521 1
ion Na   0.500000000000000   0.500000000000000   0.426862589520471 1
ion Na  -0.000000000000000   0.000000000000000   0.475645411799016 1
ion Na   0.500000000000000   0.500000000000000   0.524354588200984 1
ion Na   0.000000000000000   0.000000000000000   0.573137410479529 1
ion Na   0.500000000000000   0.500000000000000   0.621523582841479 1
ion Na  -0.000000000000000   0.000000000000000   0.669515952603330 1
ion Na   0.500000000000000   0.500000000000000   0.718101180953172 1

# Forces in Lattice coordinates:
force Na   0.000000000000000  -0.000000000000000   0.000361376894034 1
force Na   0.000000000000000   0.000000000000000   0.001152352431819 1
force Na   0.000000000000000  -0.000000000000000   0.001539081202482 1
force Na  -0.000000000000000  -0.000000000000000   0.001626363659007 1
force Na  -0.000000000000000  -0.000000000000000   0.000104492066466 1
force Na  -0.000000000000000   0.000000000000000  -0.000104492066580 1
force Na  -0.000000000000000  -0.000000000000000  -0.001626363658553 1
force Na   0.000000000000000   0.000000000000000  -0.001539081202482 1
force Na   0.000000000000000   0.000000000000000  -0.001152352430910 1
force Na   0.000000000000000  -0.000000000000000  -0.000361376893124 1

# Energy components:
   Eewald =    -5452.6073716988839806
       EH =    -5111.1931172724989665
     Eloc =    10112.8370530426582263
      Enl =     -129.3119202752466776
   Epulay =       -0.0000000029753984
      Exc =      -62.6214604563443373
       KE =      216.9160601292795150
-------------------------------------
     Etot =     -425.9807565340116184
       TS =        0.0002507455266528
-------------------------------------
        F =     -425.9810072795382894

IonicMinimize: Iter:  10  F: -425.981007279538289  |grad|_K:  8.110e-06  alpha:  1.000e+00  linmin:  9.426e-01  t[s]:   4242.09
IonicMinimize: Converged (|grad|_K<1.000000e-05).

#--- Lowdin population analysis ---
# oxidation-state Na +0.055 +0.049 +0.029 +0.049 +0.038 +0.038 +0.049 +0.029 +0.049 +0.055


Dumping 'X.fillings' ... done
Dumping 'X.wfns' ... done
Dumping 'X.ionpos' ... done
Dumping 'X.lattice' ... done
Dumping 'X.n' ... done
Dumping 'X.eigenvals' ... done
Dumping 'X.eigStats' ... 
	eMin: -2.057899 at state 0 ( [ +0.000000 +0.000000 +0.000000 ] spin 0 )
	HOMO: -0.097582 at state 10 ( [ +0.090909 +0.454545 +0.000000 ] spin 0 )
	mu  : -0.096488
	LUMO: -0.095879 at state 1 ( [ +0.000000 +0.090909 +0.000000 ] spin 0 )
	eMax: -0.008321 at state 11 ( [ +0.181818 +0.181818 +0.000000 ] spin 0 )
	HOMO-LUMO gap: +0.001702
	Optical gap  : +0.007485 at state 17 ( [ +0.272727 +0.454545 +0.000000 ] spin 0 )
Dumping 'X.dos' ... done.
End date and time: Thu Nov  9 02:11:33 2023  (Duration: 0-1:10:43.45)
Done!
