*************** JDFTx 1.7.0 (git hash 29f622bc) ***************

Start date and time: Fri Jan 12 11:25:59 2024
Executable jdftx with command-line: -c 2 -i X.in -o X.out
Running on hosts (process indices):  ac0069 (0,2,4,6,8-9)  ac0077 (1,3,5,7)
Divided in process groups (process indices):  0 (0)  1 (1)  2 (2)  3 (3)  4 (4)  5 (5)  6 (6)  7 (7)  8 (8)  9 (9)
Resource initialization completed at t[s]:      0.01
Run totals: 10 processes, 20 threads, 0 GPUs


Input parsed successfully to the following command list (including defaults):

basis kpoint-dependent
cache-projectors no
converge-empty-states yes
coords-type Lattice
core-overlap-check vector
coulomb-interaction Slab 001
coulomb-truncation-embed 0 0 0.5
davidson-band-ratio 1.1
density-of-states Etol 1.000000e-06 Esigma 0.000000e+00 \
		Complete \
	Total \
		Occupied \
	Total
dump End State IonicPositions Lattice ElecDensity CoreDensity EigStats DOS
dump Electronic State Forces
dump Ionic State IonicPositions Forces Lattice DOS
dump-interval Electronic 8
dump-interval Ionic 4
dump-name X.$var
elec-cutoff 50
elec-eigen-algo Davidson
elec-ex-corr gga-PBE
elec-smearing Cold 0.0095
electronic-minimize  \
	dirUpdateScheme      FletcherReeves \
	linminMethod         DirUpdateRecommended \
	nIterations          2000 \
	history              15 \
	knormThreshold       0 \
	energyDiffThreshold  1e-08 \
	nEnergyDiff          2 \
	alphaTstart          1 \
	alphaTmin            1e-10 \
	updateTestStepSize   yes \
	alphaTreduceFactor   0.1 \
	alphaTincreaseFactor 3 \
	nAlphaAdjustMax      3 \
	wolfeEnergy          0.0001 \
	wolfeGradient        0.9 \
	fdTest               no
exchange-regularization WignerSeitzTruncated
fluid None
fluid-ex-corr (null) lda-PZ
fluid-gummel-loop 10 1.000000e-05
fluid-minimize  \
	dirUpdateScheme      PolakRibiere \
	linminMethod         DirUpdateRecommended \
	nIterations          100 \
	history              15 \
	knormThreshold       0 \
	energyDiffThreshold  0 \
	nEnergyDiff          2 \
	alphaTstart          1 \
	alphaTmin            1e-10 \
	updateTestStepSize   yes \
	alphaTreduceFactor   0.1 \
	alphaTincreaseFactor 3 \
	nAlphaAdjustMax      3 \
	wolfeEnergy          0.0001 \
	wolfeGradient        0.9 \
	fdTest               no
fluid-solvent H2O 55.338 ScalarEOS \
	epsBulk 78.4 \
	pMol 0.92466 \
	epsInf 1.77 \
	Pvap 1.06736e-10 \
	sigmaBulk 4.62e-05 \
	Rvdw 2.61727 \
	Res 1.42 \
	tauNuc 343133 \
	poleEl 15 7 1
forces-output-coords Positions
initial-state X.$var
ion Na   0.000000000000000   0.000000000000000   0.420930016490673 1
ion Na   0.250000000000000   0.250000000000000   0.500000000000000 1
ion Na   0.000000000000000   0.000000000000000   0.579069983509327 1
ion Na   0.000000000000000   0.500000000000000   0.420930016490673 1
ion Na   0.250000000000000   0.750000000000000   0.500000000000000 1
ion Na   0.000000000000000   0.500000000000000   0.579069983509327 1
ion Na   0.500000000000000   0.000000000000000   0.420930016490673 1
ion Na   0.750000000000000   0.250000000000000   0.500000000000000 1
ion Na   0.500000000000000   0.000000000000000   0.579069983509327 1
ion Na   0.500000000000000   0.500000000000000   0.420930016490673 1
ion Na   0.750000000000000   0.750000000000000   0.500000000000000 1
ion Na   0.500000000000000   0.500000000000000   0.579069983509327 1
ion-species SG15/$ID_ONCV_PBE.upf
ion-width 0
ionic-minimize  \
	dirUpdateScheme      L-BFGS \
	linminMethod         DirUpdateRecommended \
	nIterations          200 \
	history              15 \
	knormThreshold       1e-05 \
	energyDiffThreshold  1e-07 \
	nEnergyDiff          2 \
	alphaTstart          1 \
	alphaTmin            1e-10 \
	updateTestStepSize   yes \
	alphaTreduceFactor   0.1 \
	alphaTincreaseFactor 3 \
	nAlphaAdjustMax      3 \
	wolfeEnergy          0.0001 \
	wolfeGradient        0.9 \
	fdTest               no
kpoint   0.000000000000   0.000000000000   0.000000000000  1.00000000000000
kpoint-folding 7 7 1 
latt-move-scale 1 1 1
latt-scale 1 1 1 
lattice  \
	  15.877738227600000   -0.000000000000000   -0.000000000000000  \
	   0.000000000000000   15.877738227600000   -0.000000000000000  \
	   0.000000000000000    0.000000000000000   50.272865136000000 
lattice-minimize  \
	dirUpdateScheme      L-BFGS \
	linminMethod         DirUpdateRecommended \
	nIterations          0 \
	history              15 \
	knormThreshold       0 \
	energyDiffThreshold  1e-06 \
	nEnergyDiff          2 \
	alphaTstart          1 \
	alphaTmin            1e-10 \
	updateTestStepSize   yes \
	alphaTreduceFactor   0.1 \
	alphaTincreaseFactor 3 \
	nAlphaAdjustMax      3 \
	wolfeEnergy          0.0001 \
	wolfeGradient        0.9 \
	fdTest               no
lcao-params -1 1e-06 0.0095
pcm-variant GLSSA13
spintype no-spin
subspace-rotation-factor 1 yes
symmetries automatic
symmetry-threshold 0.0001



---------- Setting up symmetries ----------

Found 16 point-group symmetries of the bravais lattice
Found 64 space-group symmetries with basis
Applied RMS atom displacement 0 bohrs to make symmetries exact.

---------- Initializing the Grid ----------
R = 
[      15.8777            0            0  ]
[            0      15.8777            0  ]
[            0            0      50.2729  ]
unit cell volume = 12673.9
G =
[   0.395723          0          0  ]
[         -0   0.395723          0  ]
[          0         -0   0.124982  ]
Minimum fftbox size, Smin = [  104  104  324  ]
Chosen fftbox size, S = [  108  108  324  ]

---------- Exchange Correlation functional ----------
Initalized PBE GGA exchange.
Initalized PBE GGA correlation.

---------- Setting up pseudopotentials ----------
Width of ionic core gaussian charges (only for fluid interactions / plotting) set to 0

Reading pseudopotential file '/net/people/plgrid/plgigoro/jdftx1.7.0_oblas_fftw_libxc_git_ares/build/pseudopotentials/SG15/Na_ONCV_PBE.upf':
  'Na' pseudopotential, 'PBE' functional
  Generated using ONCVPSP code by D. R. Hamann
  Author: Martin Schlipf and Francois Gygi  Date: 150915.
  9 valence electrons, 3 orbitals, 4 projectors, 1992 radial grid points, with lMax = 1
  Transforming local potential to a uniform radial grid of dG=0.02 with 1824 points.
  Transforming nonlocal projectors to a uniform radial grid of dG=0.02 with 680 points.
    2S    l: 0   occupation:  2.0   eigenvalue: -2.085640
    2P    l: 1   occupation:  6.0   eigenvalue: -1.053708
    3S    l: 0   occupation:  1.0   eigenvalue: -0.100838
  Transforming atomic orbitals to a uniform radial grid of dG=0.02 with 680 points.
  Core radius for overlap checks: 2.01 bohrs.
  Reading pulay file /net/people/plgrid/plgigoro/jdftx1.7.0_oblas_fftw_libxc_git_ares/build/pseudopotentials/SG15/Na_ONCV_PBE.pulay ... using dE_dnG = -4.628430e-06 computed for Ecut = 50.

Initialized 1 species with 12 total atoms.

Folded 1 k-points by 7x7x1 to 49 k-points.

---------- Setting up k-points, bands, fillings ----------
Reduced to 10 k-points under symmetry. 
Computing the number of bands and number of electrons
Reading initial fillings from file X.fillings.
nElectrons: 108.000000   nBands: 60   nStates: 10

----- Setting up reduced wavefunction bases (one per k-point) -----
average nbasis = 214017.571 , ideal nbasis = 214022.738

----- Initializing Supercell corresponding to k-point mesh -----
Lattice vector linear combinations in supercell:
[   7   0   0  ]
[   0   7   0  ]
[   0   0   1  ]
Supercell lattice vectors:
[  111.144  0  0  ]
[  0  111.144  0  ]
[  0  0  50.2729  ]

---------- Setting up coulomb interaction ----------
Setting up double-sized grid for truncated Coulomb potentials:
R = 
[      15.8777            0            0  ]
[            0      15.8777            0  ]
[            0            0      100.546  ]
unit cell volume = 25347.8
G =
[   0.395723          0          0  ]
[         -0   0.395723          0  ]
[          0         -0  0.0624908  ]
Chosen fftbox size, S = [  108  108  648  ]
Integer grid location selected as the embedding center:
   Grid: [  0  0  162  ]
   Lattice: [  0  0  0.5  ]
   Cartesian: [  0  0  25.1364  ]
Constructing Wigner-Seitz cell: 6 faces (6 quadrilaterals, 0 hexagons)
Range-separation parameter for embedded mesh potentials due to point charges: 0.49694 bohrs.
Initialized slab truncation along lattice direction 001

---------- Setting up 2D ewald sum ----------
Optimum gaussian width for ewald sums = 9.471989 bohr.
Real space sums over 225 unit cells with max indices [  7  7  0  ]
Reciprocal space sums over 81 terms with max indices [  4  4  0  ]

---------- Allocating electronic variables ----------
Initializing wave functions:  reading from 'X.wfns'


---- Citations for features of the code used in this run ----

   Software package:
      R. Sundararaman, K. Letchworth-Weaver, K.A. Schwarz, D. Gunceler, Y. Ozhabes and T.A. Arias, 'JDFTx: software for joint density-functional theory', SoftwareX 6, 278 (2017)

   gga-PBE exchange-correlation functional:
      J.P. Perdew, K. Burke and M. Ernzerhof, Phys. Rev. Lett. 77, 3865 (1996)

   Pseudopotentials:
      M Schlipf and F Gygi, Comput. Phys. Commun. 196, 36 (2015)

   Truncated Coulomb potentials:
      R. Sundararaman and T.A. Arias, Phys. Rev. B 87, 165122 (2013)

   Total energy minimization with Auxiliary Hamiltonian:
      C. Freysoldt, S. Boeck, and J. Neugebauer, Phys. Rev. B 79, 241103(R) (2009)

   Linear-tetrahedron sampling for density of states:
      G. Lehmann and M. Taut, Phys. status solidi (b) 54, 469 (1972)

This list may not be complete. Please suggest additional citations or
report any other bugs at https://github.com/shankar1729/jdftx/issues

Initialization completed successfully at t[s]:     15.97


-------- Electronic minimization -----------
	FillingsUpdate:  mu: -0.096866008  nElectrons: 108.000000
ElecMinimize: Iter:   0  F: -511.128887460534543  |grad|_K:  2.927e-08  alpha:  1.000e+00
	FillingsUpdate:  mu: -0.096874451  nElectrons: 108.000000
	SubspaceRotationAdjust: set factor to 0.994
ElecMinimize: Iter:   1  F: -511.128887493720583  |grad|_K:  1.716e-08  alpha:  3.017e-01  linmin:  1.557e-06  t[s]:     63.28
	FillingsUpdate:  mu: -0.096881597  nElectrons: 108.000000
	SubspaceRotationAdjust: set factor to 1.01
ElecMinimize: Iter:   2  F: -511.128887508944388  |grad|_K:  1.225e-08  alpha:  4.039e-01  linmin:  7.620e-06  t[s]:     87.48
	FillingsUpdate:  mu: -0.096886100  nElectrons: 108.000000
	SubspaceRotationAdjust: set factor to 1.04
ElecMinimize: Iter:   3  F: -511.128887520100648  |grad|_K:  1.147e-08  alpha:  5.790e-01  linmin:  1.061e-06  t[s]:    111.62
	FillingsUpdate:  mu: -0.096895369  nElectrons: 108.000000
	SubspaceRotationAdjust: set factor to 1.04
ElecMinimize: Iter:   4  F: -511.128887533994941  |grad|_K:  1.417e-08  alpha:  8.156e-01  linmin: -1.714e-06  t[s]:    135.79
	FillingsUpdate:  mu: -0.096919612  nElectrons: 108.000000
	SubspaceRotationAdjust: set factor to 1.19
ElecMinimize: Iter:   5  F: -511.128887579137086  |grad|_K:  2.554e-08  alpha:  1.048e+00  linmin: -2.689e-04  t[s]:    159.91
	FillingsUpdate:  mu: -0.096919629  nElectrons: 108.000000
	SubspaceRotationAdjust: set factor to 1.24
ElecMinimize: Iter:   6  F: -511.128887579266348  |grad|_K:  2.557e-08  alpha:  1.752e-04  linmin: -3.630e-04  t[s]:    184.17
	FillingsUpdate:  mu: -0.096919650  nElectrons: 108.000000

Dumping 'X.fillings' ... done
Dumping 'X.wfns' ... done
Dumping 'X.ionpos' ... done
Dumping 'X.force' ... done
Dumping 'X.eigenvals' ... done
	SubspaceRotationAdjust: set factor to 1.31
ElecMinimize: Iter:   7  F: -511.128887579442733  |grad|_K:  2.556e-08  alpha:  2.724e-04  linmin: -4.569e-04  t[s]:    209.12
ElecMinimize: Converged (|Delta F|<1.000000e-08 for 2 iters).
Setting wave functions to eigenvectors of Hamiltonian
Converging empty states (this may take a while): |deigs|: 2.578e-03

# Ionic positions in lattice coordinates:
ion Na   0.000000000000000   0.000000000000000   0.420930016490673 1
ion Na   0.250000000000000   0.250000000000000   0.500000000000000 1
ion Na   0.000000000000000   0.000000000000000   0.579069983509327 1
ion Na   0.000000000000000   0.500000000000000   0.420930016490673 1
ion Na   0.250000000000000   0.750000000000000   0.500000000000000 1
ion Na   0.000000000000000   0.500000000000000   0.579069983509327 1
ion Na   0.500000000000000   0.000000000000000   0.420930016490673 1
ion Na   0.750000000000000   0.250000000000000   0.500000000000000 1
ion Na   0.500000000000000   0.000000000000000   0.579069983509327 1
ion Na   0.500000000000000   0.500000000000000   0.420930016490673 1
ion Na   0.750000000000000   0.750000000000000   0.500000000000000 1
ion Na   0.500000000000000   0.500000000000000   0.579069983509327 1

# Forces in Lattice coordinates:
force Na   0.000000000000000  -0.000000000000000  -0.004683400577142 1
force Na   0.000000000000000   0.000000000000000   0.000000000000000 1
force Na   0.000000000000000  -0.000000000000000   0.004683400577143 1
force Na   0.000000000000000   0.000000000000000  -0.004683400577142 1
force Na   0.000000000000000   0.000000000000000   0.000000000000000 1
force Na   0.000000000000000   0.000000000000000   0.004683400577255 1
force Na  -0.000000000000000  -0.000000000000000  -0.004683400577143 1
force Na   0.000000000000000   0.000000000000000   0.000000000000000 1
force Na  -0.000000000000000  -0.000000000000000   0.004683400577142 1
force Na   0.000000000000000   0.000000000000000  -0.004683400577142 1
force Na   0.000000000000000  -0.000000000000000   0.000000000000000 1
force Na  -0.000000000000000   0.000000000000000   0.004683400577256 1

# Energy components:
   Eewald =     -763.3209239510551924
       EH =     -354.3908436060860936
     Eloc =      576.6296457365158403
      Enl =     -155.1306751206887498
   Epulay =       -0.0000000226432096
      Exc =      -75.0383253013851430
       KE =      260.1234387713030856
-------------------------------------
     Etot =     -511.1276834940393883
       TS =        0.0012040854033442
-------------------------------------
        F =     -511.1288875794427327

IonicMinimize: Iter:   0  F: -511.128887579442733  |grad|_K:  4.392e-05  t[s]:    305.69

#--- Lowdin population analysis ---
# oxidation-state Na +0.049 +0.053 +0.049 +0.049 +0.053 +0.049 +0.049 +0.053 +0.049 +0.049 +0.053 +0.049


-------- Electronic minimization -----------
	FillingsUpdate:  mu: -0.096912425  nElectrons: 108.000000
ElecMinimize: Iter:   0  F: -511.128889288752077  |grad|_K:  6.905e-08  alpha:  1.000e+00
	FillingsUpdate:  mu: -0.096912701  nElectrons: 108.000000
	SubspaceRotationAdjust: set factor to 0.664
ElecMinimize: Iter:   1  F: -511.128889301427193  |grad|_K:  6.849e-08  alpha:  1.037e-02  linmin: -1.124e-03  t[s]:    347.78
ElecMinimize: 	Predicted alpha/alphaT>3.000000, increasing alphaT to 3.110632e-02.
ElecMinimize: 	Predicted alpha/alphaT>3.000000, increasing alphaT to 9.331895e-02.
ElecMinimize: 	Predicted alpha/alphaT>3.000000, increasing alphaT to 2.799568e-01.
ElecMinimize: 	Step increased F by 5.112713e-02, reducing alpha to 2.516473e-01.
	FillingsUpdate:  mu: -0.096926499  nElectrons: 108.000000
	SubspaceRotationAdjust: set factor to 0.351
ElecMinimize: Iter:   2  F: -511.128889957054412  |grad|_K:  3.917e-08  alpha:  2.516e-01  linmin: -1.693e-03  t[s]:    402.66
ElecMinimize: 	Wrong curvature in test step, increasing alphaT to 7.549419e-01.
	FillingsUpdate:  mu: -0.096929070  nElectrons: 108.000000
	SubspaceRotationAdjust: set factor to 0.187
ElecMinimize: Iter:   3  F: -511.128890826892018  |grad|_K:  2.171e-08  alpha: -1.322e-01  linmin: -9.482e-03  t[s]:    425.61
	FillingsUpdate:  mu: -0.096928962  nElectrons: 108.000000
	SubspaceRotationAdjust: set factor to 0.105
	SubspaceRotationAdjust: resetting CG because factor has changed by 0.080007
ElecMinimize: 	State modified externally: resetting search direction.
ElecMinimize: Iter:   4  F: -511.128890855867439  |grad|_K:  1.189e-08  alpha:  1.814e-02
ElecMinimize: 	Wrong curvature in test step, increasing alphaT to 5.442850e-02.
	FillingsUpdate:  mu: -0.096928878  nElectrons: 108.000000
	SubspaceRotationAdjust: set factor to 0.0619
ElecMinimize: Iter:   5  F: -511.128890856537566  |grad|_K:  1.175e-08  alpha: -5.538e-01  linmin: -1.296e-02  t[s]:    487.62
	FillingsUpdate:  mu: -0.096921486  nElectrons: 108.000000
	SubspaceRotationAdjust: set factor to 0.0739
ElecMinimize: Iter:   6  F: -511.128890885400210  |grad|_K:  2.455e-08  alpha:  8.188e-01  linmin:  2.885e-06  t[s]:    511.76
	FillingsUpdate:  mu: -0.096912171  nElectrons: 108.000000

Dumping 'X.fillings' ... done
Dumping 'X.wfns' ... done
Dumping 'X.ionpos' ... done
Dumping 'X.force' ... done
Dumping 'X.eigenvals' ... done
	SubspaceRotationAdjust: set factor to 0.0757
ElecMinimize: Iter:   7  F: -511.128890911276358  |grad|_K:  4.173e-08  alpha:  2.965e-01  linmin: -6.453e-05  t[s]:    536.54
	FillingsUpdate:  mu: -0.096901897  nElectrons: 108.000000
	SubspaceRotationAdjust: set factor to 0.0762
ElecMinimize: Iter:   8  F: -511.128890952596180  |grad|_K:  4.545e-08  alpha:  1.401e-01  linmin: -8.618e-05  t[s]:    560.64
	FillingsUpdate:  mu: -0.096896997  nElectrons: 108.000000
	SubspaceRotationAdjust: set factor to 0.0763
ElecMinimize: Iter:   9  F: -511.128890977550100  |grad|_K:  3.692e-08  alpha:  7.654e-02  linmin: -3.275e-05  t[s]:    584.79
	FillingsUpdate:  mu: -0.096895880  nElectrons: 108.000000
	SubspaceRotationAdjust: set factor to 0.0775
ElecMinimize: Iter:  10  F: -511.128890987874115  |grad|_K:  2.697e-08  alpha:  5.614e-02  linmin: -3.261e-06  t[s]:    608.99
	FillingsUpdate:  mu: -0.096896319  nElectrons: 108.000000
	SubspaceRotationAdjust: set factor to 0.0818
ElecMinimize: Iter:  11  F: -511.128890992570859  |grad|_K:  1.904e-08  alpha:  5.038e-02  linmin:  4.994e-06  t[s]:    633.16
	FillingsUpdate:  mu: -0.096897361  nElectrons: 108.000000
	SubspaceRotationAdjust: set factor to 0.0936
ElecMinimize: Iter:  12  F: -511.128890994894164  |grad|_K:  1.356e-08  alpha:  5.082e-02  linmin:  7.602e-05  t[s]:    657.28
ElecMinimize: Converged (|Delta F|<1.000000e-08 for 2 iters).
Setting wave functions to eigenvectors of Hamiltonian
Converging empty states (this may take a while): |deigs|: 7.447e-09

# Ionic positions in lattice coordinates:
ion Na   0.000000000000000   0.000000000000000   0.420928163411261 1
ion Na   0.250000000000000   0.250000000000000   0.500000000000000 1
ion Na  -0.000000000000000  -0.000000000000000   0.579071836588739 1
ion Na   0.000000000000000   0.500000000000000   0.420928163411261 1
ion Na   0.250000000000000   0.750000000000000   0.500000000000000 1
ion Na   0.000000000000000   0.500000000000000   0.579071836588739 1
ion Na   0.500000000000000   0.000000000000000   0.420928163411261 1
ion Na   0.750000000000000   0.250000000000000   0.500000000000000 1
ion Na   0.500000000000000  -0.000000000000000   0.579071836588739 1
ion Na   0.500000000000000   0.500000000000000   0.420928163411261 1
ion Na   0.750000000000000   0.750000000000000   0.500000000000000 1
ion Na   0.500000000000000   0.500000000000000   0.579071836588739 1

# Forces in Lattice coordinates:
force Na   0.000000000000000   0.000000000000000   0.000394427997148 1
force Na  -0.000000000000000  -0.000000000000000  -0.000000000000000 1
force Na   0.000000000000000  -0.000000000000000  -0.000394427997262 1
force Na   0.000000000000000  -0.000000000000000   0.000394427997262 1
force Na  -0.000000000000000  -0.000000000000000   0.000000000000000 1
force Na   0.000000000000000  -0.000000000000000  -0.000394427997377 1
force Na   0.000000000000000  -0.000000000000000   0.000394427997263 1
force Na   0.000000000000000   0.000000000000000   0.000000000000000 1
force Na  -0.000000000000000  -0.000000000000000  -0.000394427997262 1
force Na  -0.000000000000000  -0.000000000000000   0.000394427997148 1
force Na  -0.000000000000000   0.000000000000000  -0.000000000000000 1
force Na  -0.000000000000000  -0.000000000000000  -0.000394427997263 1

# Energy components:
   Eewald =     -763.3322593097349227
       EH =     -354.3988222815029872
     Eloc =      576.6489112662261505
      Enl =     -155.1307893681116070
   Epulay =       -0.0000000226432096
      Exc =      -75.0383595397834142
       KE =      260.1236659632083956
-------------------------------------
     Etot =     -511.1276532923416198
       TS =        0.0012377025525601
-------------------------------------
        F =     -511.1288909948941637

IonicMinimize: Iter:   1  F: -511.128890994894164  |grad|_K:  3.699e-06  alpha:  1.000e+00  linmin:  1.000e+00  t[s]:    681.70
IonicMinimize: Converged (|grad|_K<1.000000e-05).

#--- Lowdin population analysis ---
# oxidation-state Na +0.049 +0.053 +0.049 +0.049 +0.053 +0.049 +0.049 +0.053 +0.049 +0.049 +0.053 +0.049


Dumping 'X.fillings' ... done
Dumping 'X.wfns' ... done
Dumping 'X.ionpos' ... done
Dumping 'X.lattice' ... done
Dumping 'X.n' ... done
Dumping 'X.eigenvals' ... done
Dumping 'X.eigStats' ... 
	eMin: -2.058823 at state 0 ( [ +0.000000 +0.000000 +0.000000 ] spin 0 )
	HOMO: -0.100465 at state 5 ( [ +0.142857 +0.285714 +0.000000 ] spin 0 )
	mu  : -0.096897
	LUMO: -0.098824 at state 7 ( [ +0.285714 +0.285714 +0.000000 ] spin 0 )
	eMax: -0.034639 at state 9 ( [ +0.428571 +0.428571 +0.000000 ] spin 0 )
	HOMO-LUMO gap: +0.001642
	Optical gap  : +0.005894 at state 3 ( [ +0.000000 +0.428571 +0.000000 ] spin 0 )
Dumping 'X.dos' ... done.
End date and time: Fri Jan 12 11:37:22 2024  (Duration: 0-0:11:23.23)
Done!

*************** JDFTx 1.7.0 (git hash 29f622bc) ***************

Start date and time: Fri Jan 12 12:51:23 2024
Executable jdftx with command-line: -c 2 -i X.in -o X.out
Running on hosts (process indices):  ac0531 (0-9)
Divided in process groups (process indices):  0 (0)  1 (1)  2 (2)  3 (3)  4 (4)  5 (5)  6 (6)  7 (7)  8 (8)  9 (9)
Resource initialization completed at t[s]:      0.00
Run totals: 10 processes, 20 threads, 0 GPUs


Input parsed successfully to the following command list (including defaults):

basis kpoint-dependent
cache-projectors no
coords-type Lattice
core-overlap-check vector
coulomb-interaction Slab 001
coulomb-truncation-embed 0 0 0.5
davidson-band-ratio 1.1
density-of-states Etol 1.000000e-06 Esigma 0.000000e+00 \
		Complete \
	Total \
		Occupied \
	Total
dump End State IonicPositions Lattice ElecDensity CoreDensity EigStats DOS
dump Electronic State Forces
dump Ionic State IonicPositions Forces Lattice DOS
dump-interval Electronic 8
dump-interval Ionic 4
dump-name X.$var
elec-cutoff 50
elec-eigen-algo Davidson
elec-ex-corr gga-PBE
elec-smearing Cold 0.0095
electronic-minimize  \
	dirUpdateScheme      FletcherReeves \
	linminMethod         DirUpdateRecommended \
	nIterations          2000 \
	history              15 \
	knormThreshold       0 \
	energyDiffThreshold  1e-07 \
	nEnergyDiff          2 \
	alphaTstart          1 \
	alphaTmin            1e-10 \
	updateTestStepSize   yes \
	alphaTreduceFactor   0.1 \
	alphaTincreaseFactor 3 \
	nAlphaAdjustMax      3 \
	wolfeEnergy          0.0001 \
	wolfeGradient        0.9 \
	fdTest               no
exchange-regularization WignerSeitzTruncated
fluid LinearPCM 298.000000 1.013250
fluid-ex-corr (null) lda-PZ
fluid-gummel-loop 10 1.000000e-05
fluid-minimize  \
	dirUpdateScheme      PolakRibiere \
	linminMethod         DirUpdateRecommended \
	nIterations          400 \
	history              15 \
	knormThreshold       1e-11 \
	energyDiffThreshold  0 \
	nEnergyDiff          2 \
	alphaTstart          1 \
	alphaTmin            1e-10 \
	updateTestStepSize   yes \
	alphaTreduceFactor   0.1 \
	alphaTincreaseFactor 3 \
	nAlphaAdjustMax      6 \
	wolfeEnergy          0.0001 \
	wolfeGradient        0.9 \
	fdTest               no
fluid-solvent EC 15.0047 ScalarEOS \
	epsBulk 90.5 \
	pMol 2.88 \
	epsInf 2 \
	Pvap 7.53424e-14 \
	sigmaBulk 3.51e-05 \
	Rvdw 0 \
	Res 0 \
	tauNuc 343133
forces-output-coords Positions
initial-state X.$var
ion Na   0.000000000000000   0.000000000000000   0.420928163411261 1
ion Na   0.250000000000000   0.250000000000000   0.500000000000000 1
ion Na  -0.000000000000000  -0.000000000000000   0.579071836588739 1
ion Na   0.000000000000000   0.500000000000000   0.420928163411261 1
ion Na   0.250000000000000   0.750000000000000   0.500000000000000 1
ion Na   0.000000000000000   0.500000000000000   0.579071836588739 1
ion Na   0.500000000000000   0.000000000000000   0.420928163411261 1
ion Na   0.750000000000000   0.250000000000000   0.500000000000000 1
ion Na   0.500000000000000  -0.000000000000000   0.579071836588739 1
ion Na   0.500000000000000   0.500000000000000   0.420928163411261 1
ion Na   0.750000000000000   0.750000000000000   0.500000000000000 1
ion Na   0.500000000000000   0.500000000000000   0.579071836588739 1
ion-species SG15/$ID_ONCV_PBE.upf
ion-width Ecut
ionic-minimize  \
	dirUpdateScheme      L-BFGS \
	linminMethod         DirUpdateRecommended \
	nIterations          200 \
	history              15 \
	knormThreshold       0.0001 \
	energyDiffThreshold  1e-06 \
	nEnergyDiff          2 \
	alphaTstart          1 \
	alphaTmin            1e-10 \
	updateTestStepSize   yes \
	alphaTreduceFactor   0.1 \
	alphaTincreaseFactor 3 \
	nAlphaAdjustMax      3 \
	wolfeEnergy          0.0001 \
	wolfeGradient        0.9 \
	fdTest               no
kpoint   0.000000000000   0.000000000000   0.000000000000  1.00000000000000
kpoint-folding 7 7 1 
latt-move-scale 1 1 1
latt-scale 1 1 1 
lattice  \
	  15.877738227600000   -0.000000000000000   -0.000000000000000  \
	   0.000000000000000   15.877738227600000   -0.000000000000000  \
	   0.000000000000000    0.000000000000000   50.272865136000000 
lattice-minimize  \
	dirUpdateScheme      L-BFGS \
	linminMethod         DirUpdateRecommended \
	nIterations          0 \
	history              15 \
	knormThreshold       0 \
	energyDiffThreshold  1e-06 \
	nEnergyDiff          2 \
	alphaTstart          1 \
	alphaTmin            1e-10 \
	updateTestStepSize   yes \
	alphaTreduceFactor   0.1 \
	alphaTincreaseFactor 3 \
	nAlphaAdjustMax      3 \
	wolfeEnergy          0.0001 \
	wolfeGradient        0.9 \
	fdTest               no
lcao-params -1 1e-06 0.0095
pcm-variant GLSSA13
spintype no-spin
subspace-rotation-factor 1 yes
symmetries automatic
symmetry-threshold 0.0001



---------- Setting up symmetries ----------

Found 16 point-group symmetries of the bravais lattice
Found 64 space-group symmetries with basis
Applied RMS atom displacement 0 bohrs to make symmetries exact.

---------- Initializing the Grid ----------
R = 
[      15.8777            0            0  ]
[            0      15.8777            0  ]
[            0            0      50.2729  ]
unit cell volume = 12673.9
G =
[   0.395723          0          0  ]
[         -0   0.395723          0  ]
[          0         -0   0.124982  ]
Minimum fftbox size, Smin = [  104  104  324  ]
Chosen fftbox size, S = [  108  108  324  ]

---------- Exchange Correlation functional ----------
Initalized PBE GGA exchange.
Initalized PBE GGA correlation.

---------- Setting up pseudopotentials ----------
Width of ionic core gaussian charges (only for fluid interactions / plotting) set to 0.251327

Reading pseudopotential file '/net/people/plgrid/plgigoro/jdftx1.7.0_oblas_fftw_libxc_git_ares/build/pseudopotentials/SG15/Na_ONCV_PBE.upf':
  'Na' pseudopotential, 'PBE' functional
  Generated using ONCVPSP code by D. R. Hamann
  Author: Martin Schlipf and Francois Gygi  Date: 150915.
  9 valence electrons, 3 orbitals, 4 projectors, 1992 radial grid points, with lMax = 1
  Transforming local potential to a uniform radial grid of dG=0.02 with 1824 points.
  Transforming nonlocal projectors to a uniform radial grid of dG=0.02 with 680 points.
    2S    l: 0   occupation:  2.0   eigenvalue: -2.085640
    2P    l: 1   occupation:  6.0   eigenvalue: -1.053708
    3S    l: 0   occupation:  1.0   eigenvalue: -0.100838
  Transforming atomic orbitals to a uniform radial grid of dG=0.02 with 680 points.
  Core radius for overlap checks: 2.01 bohrs.
  Reading pulay file /net/people/plgrid/plgigoro/jdftx1.7.0_oblas_fftw_libxc_git_ares/build/pseudopotentials/SG15/Na_ONCV_PBE.pulay ... using dE_dnG = -4.628430e-06 computed for Ecut = 50.

Initialized 1 species with 12 total atoms.

Folded 1 k-points by 7x7x1 to 49 k-points.

---------- Setting up k-points, bands, fillings ----------
Reduced to 10 k-points under symmetry. 
Computing the number of bands and number of electrons
Reading initial fillings from file X.fillings.
nElectrons: 108.000000   nBands: 60   nStates: 10

----- Setting up reduced wavefunction bases (one per k-point) -----
average nbasis = 214017.571 , ideal nbasis = 214022.738

----- Initializing Supercell corresponding to k-point mesh -----
Lattice vector linear combinations in supercell:
[   7   0   0  ]
[   0   7   0  ]
[   0   0   1  ]
Supercell lattice vectors:
[  111.144  0  0  ]
[  0  111.144  0  ]
[  0  0  50.2729  ]

---------- Setting up coulomb interaction ----------
Fluid mode embedding: using embedded box, but periodic Coulomb kernel.
(Fluid response is responsible for (approximate) separation between periodic images.)
Setting up double-sized grid for truncated Coulomb potentials:
R = 
[      15.8777            0            0  ]
[            0      15.8777            0  ]
[            0            0      100.546  ]
unit cell volume = 25347.8
G =
[   0.395723          0          0  ]
[         -0   0.395723          0  ]
[          0         -0  0.0624908  ]
Chosen fftbox size, S = [  108  108  648  ]
Integer grid location selected as the embedding center:
   Grid: [  0  0  162  ]
   Lattice: [  0  0  0.5  ]
   Cartesian: [  0  0  25.1364  ]
Constructing Wigner-Seitz cell: 6 faces (6 quadrilaterals, 0 hexagons)
Range-separation parameter for embedded mesh potentials due to point charges: 0.49694 bohrs.

---------- Setting up ewald sum ----------
Optimum gaussian width for ewald sums = 7.745096 bohr.
Real space sum over 845 unit cells with max indices [  6  6  2  ]
Reciprocal space sum over 5203 terms with max indices [  5  5  21  ]

---------- Allocating electronic variables ----------
Initializing wave functions:  reading from 'X.wfns'
----- createFluidSolver() ----- (Fluid-side solver setup)
   Initializing fluid molecule 'EC'
     Net charge: 0   dipole magnitude: 0
     Initializing spherical shell mfKernel with radius 0 Bohr
     deltaS corrections:

Correction to mu due to finite nuclear width = -0.001691
   Cavity determined by nc: 0.0018 and sigma: 0.6
   Effective cavity tension: 1.55e-05 Eh/bohr^2 to account for cavitation and dispersion.


---- Citations for features of the code used in this run ----

   Software package:
      R. Sundararaman, K. Letchworth-Weaver, K.A. Schwarz, D. Gunceler, Y. Ozhabes and T.A. Arias, 'JDFTx: software for joint density-functional theory', SoftwareX 6, 278 (2017)

   gga-PBE exchange-correlation functional:
      J.P. Perdew, K. Burke and M. Ernzerhof, Phys. Rev. Lett. 77, 3865 (1996)

   Pseudopotentials:
      M Schlipf and F Gygi, Comput. Phys. Commun. 196, 36 (2015)

   Truncated Coulomb potentials:
      R. Sundararaman and T.A. Arias, Phys. Rev. B 87, 165122 (2013)

   Linear/nonlinear dielectric/ionic fluid model with effective cavity tension:
      D. Gunceler, K. Letchworth-Weaver, R. Sundararaman, K.A. Schwarz and T.A. Arias, Modelling Simul. Mater. Sci. Eng. 21, 074005 (2013)

   Total energy minimization with Auxiliary Hamiltonian:
      C. Freysoldt, S. Boeck, and J. Neugebauer, Phys. Rev. B 79, 241103(R) (2009)

   Linear-tetrahedron sampling for density of states:
      G. Lehmann and M. Taut, Phys. status solidi (b) 54, 469 (1972)

This list may not be complete. Please suggest additional citations or
report any other bugs at https://github.com/shankar1729/jdftx/issues

Initialization completed successfully at t[s]:     16.09


-------- Electronic minimization -----------
	Linear fluid (dielectric constant: 90.5) occupying 0.883917 of unit cell:	Completed after 26 iterations at t[s]:     61.69
	FillingsUpdate:  mu: -0.014115387  nElectrons: 108.000000
ElecMinimize: Iter:   0  F: -511.724143550036672  |grad|_K:  3.259e-05  alpha:  1.000e+00
	Linear fluid (dielectric constant: 90.5) occupying 0.875961 of unit cell:	Completed after 25 iterations at t[s]:    114.90
	Linear fluid (dielectric constant: 90.5) occupying 0.879827 of unit cell:	Completed after 20 iterations at t[s]:    151.13
	FillingsUpdate:  mu: -0.020514950  nElectrons: 108.000000
	SubspaceRotationAdjust: set factor to 1.11
ElecMinimize: Iter:   1  F: -511.802642081718773  |grad|_K:  2.995e-05  alpha:  5.536e-01  linmin: -3.531e-05  t[s]:    164.70
	Linear fluid (dielectric constant: 90.5) occupying 0.872444 of unit cell:	Completed after 18 iterations at t[s]:    194.17
	Linear fluid (dielectric constant: 90.5) occupying 0.872450 of unit cell:	Completed after 0 iterations at t[s]:    207.59
	FillingsUpdate:  mu: -0.030277717  nElectrons: 108.000000
	SubspaceRotationAdjust: set factor to 1.1
ElecMinimize: Iter:   2  F: -511.867358911032625  |grad|_K:  1.979e-05  alpha:  5.532e-01  linmin:  6.026e-05  t[s]:    219.75
	Linear fluid (dielectric constant: 90.5) occupying 0.868670 of unit cell:	Completed after 17 iterations at t[s]:    248.17
	Linear fluid (dielectric constant: 90.5) occupying 0.869399 of unit cell:	Completed after 11 iterations at t[s]:    274.18
	FillingsUpdate:  mu: -0.034050814  nElectrons: 108.000000
	SubspaceRotationAdjust: set factor to 1.12
ElecMinimize: Iter:   3  F: -511.888866809114859  |grad|_K:  1.351e-05  alpha:  4.410e-01  linmin: -9.725e-06  t[s]:    287.04
	Linear fluid (dielectric constant: 90.5) occupying 0.868140 of unit cell:	Completed after 13 iterations at t[s]:    311.28
	Linear fluid (dielectric constant: 90.5) occupying 0.867407 of unit cell:	Completed after 12 iterations at t[s]:    337.67
	FillingsUpdate:  mu: -0.036865417  nElectrons: 108.000000
	SubspaceRotationAdjust: set factor to 1.15
ElecMinimize: Iter:   4  F: -511.905491457758899  |grad|_K:  1.578e-05  alpha:  7.081e-01  linmin: -4.020e-07  t[s]:    350.70
	Linear fluid (dielectric constant: 90.5) occupying 0.865391 of unit cell:	Completed after 14 iterations at t[s]:    376.06
	Linear fluid (dielectric constant: 90.5) occupying 0.865610 of unit cell:	Completed after 6 iterations at t[s]:    395.93
	FillingsUpdate:  mu: -0.039690575  nElectrons: 108.000000
	SubspaceRotationAdjust: set factor to 1.15
ElecMinimize: Iter:   5  F: -511.925356392922538  |grad|_K:  1.387e-05  alpha:  6.215e-01  linmin: -4.927e-06  t[s]:    409.39
	Linear fluid (dielectric constant: 90.5) occupying 0.864127 of unit cell:	Completed after 15 iterations at t[s]:    435.65
	Linear fluid (dielectric constant: 90.5) occupying 0.864168 of unit cell:	Completed after 5 iterations at t[s]:    454.96
	FillingsUpdate:  mu: -0.041809806  nElectrons: 108.000000
	SubspaceRotationAdjust: set factor to 1.17
ElecMinimize: Iter:   6  F: -511.940268494452596  |grad|_K:  1.294e-05  alpha:  6.023e-01  linmin: -2.921e-06  t[s]:    467.65
	Linear fluid (dielectric constant: 90.5) occupying 0.861871 of unit cell:	Completed after 16 iterations at t[s]:    494.38
	Linear fluid (dielectric constant: 90.5) occupying 0.861615 of unit cell:	Completed after 11 iterations at t[s]:    520.53
	FillingsUpdate:  mu: -0.044320304  nElectrons: 108.000000

Dumping 'X.fillings' ... done
Dumping 'X.wfns' ... done
Dumping 'X.fluidState' ... done
Dumping 'X.ionpos' ... done
Dumping 'X.force' ... done
Dumping 'X.eigenvals' ... done
	SubspaceRotationAdjust: set factor to 1.21
ElecMinimize: Iter:   7  F: -511.954813348996083  |grad|_K:  1.360e-05  alpha:  6.759e-01  linmin:  1.042e-05  t[s]:    535.40
	Linear fluid (dielectric constant: 90.5) occupying 0.858032 of unit cell:	Completed after 16 iterations at t[s]:    562.45
	Linear fluid (dielectric constant: 90.5) occupying 0.858084 of unit cell:	Completed after 3 iterations at t[s]:    580.10
	FillingsUpdate:  mu: -0.046757261  nElectrons: 108.000000
	SubspaceRotationAdjust: set factor to 1.23
ElecMinimize: Iter:   8  F: -511.970579758629981  |grad|_K:  1.276e-05  alpha:  6.642e-01  linmin:  1.356e-05  t[s]:    593.25
	Linear fluid (dielectric constant: 90.5) occupying 0.855321 of unit cell:	Completed after 18 iterations at t[s]:    622.74
	Linear fluid (dielectric constant: 90.5) occupying 0.855658 of unit cell:	Completed after 10 iterations at t[s]:    647.36
	FillingsUpdate:  mu: -0.048432173  nElectrons: 108.000000
	SubspaceRotationAdjust: set factor to 1.25
ElecMinimize: Iter:   9  F: -511.982253898723457  |grad|_K:  1.168e-05  alpha:  5.614e-01  linmin:  1.579e-06  t[s]:    660.27
	Linear fluid (dielectric constant: 90.5) occupying 0.854053 of unit cell:	Completed after 16 iterations at t[s]:    687.59
	Linear fluid (dielectric constant: 90.5) occupying 0.853998 of unit cell:	Completed after 6 iterations at t[s]:    707.70
	FillingsUpdate:  mu: -0.049716698  nElectrons: 108.000000
	SubspaceRotationAdjust: set factor to 1.3
ElecMinimize: Iter:  10  F: -511.992519627246338  |grad|_K:  1.091e-05  alpha:  5.864e-01  linmin: -2.942e-05  t[s]:    720.39
	Linear fluid (dielectric constant: 90.5) occupying 0.852876 of unit cell:	Completed after 15 iterations at t[s]:    746.80
	Linear fluid (dielectric constant: 90.5) occupying 0.852792 of unit cell:	Completed after 7 iterations at t[s]:    767.94
	FillingsUpdate:  mu: -0.050631640  nElectrons: 108.000000
	SubspaceRotationAdjust: set factor to 1.33
ElecMinimize: Iter:  11  F: -512.002410118902162  |grad|_K:  1.056e-05  alpha:  6.449e-01  linmin: -1.248e-05  t[s]:    780.88
	Linear fluid (dielectric constant: 90.5) occupying 0.851783 of unit cell:	Completed after 15 iterations at t[s]:    807.05
	Linear fluid (dielectric constant: 90.5) occupying 0.851824 of unit cell:	Completed after 5 iterations at t[s]:    826.30
	FillingsUpdate:  mu: -0.051377955  nElectrons: 108.000000
	SubspaceRotationAdjust: set factor to 1.34
ElecMinimize: Iter:  12  F: -512.011228813455546  |grad|_K:  1.032e-05  alpha:  6.119e-01  linmin: -5.106e-06  t[s]:    838.96
	Linear fluid (dielectric constant: 90.5) occupying 0.850902 of unit cell:	Completed after 13 iterations at t[s]:    862.89
	Linear fluid (dielectric constant: 90.5) occupying 0.850909 of unit cell:	Completed after 0 iterations at t[s]:    876.13
	FillingsUpdate:  mu: -0.051993815  nElectrons: 108.000000
	SubspaceRotationAdjust: set factor to 1.36
ElecMinimize: Iter:  13  F: -512.019537663607252  |grad|_K:  9.754e-06  alpha:  6.056e-01  linmin:  3.472e-06  t[s]:    889.19
	Linear fluid (dielectric constant: 90.5) occupying 0.850226 of unit cell:	Completed after 14 iterations at t[s]:    914.27
	Linear fluid (dielectric constant: 90.5) occupying 0.850228 of unit cell:	Completed after 0 iterations at t[s]:    927.21
	FillingsUpdate:  mu: -0.052541725  nElectrons: 108.000000
	SubspaceRotationAdjust: set factor to 1.39
ElecMinimize: Iter:  14  F: -512.026903370957598  |grad|_K:  9.406e-06  alpha:  6.031e-01  linmin:  5.104e-06  t[s]:    939.28
	Linear fluid (dielectric constant: 90.5) occupying 0.850025 of unit cell:	Completed after 14 iterations at t[s]:    964.36
	Linear fluid (dielectric constant: 90.5) occupying 0.850023 of unit cell:	Completed after 4 iterations at t[s]:    983.60
	FillingsUpdate:  mu: -0.053102489  nElectrons: 108.000000

Dumping 'X.fillings' ... done
Dumping 'X.wfns' ... done
Dumping 'X.fluidState' ... done
Dumping 'X.ionpos' ... done
Dumping 'X.force' ... done
Dumping 'X.eigenvals' ... done
	SubspaceRotationAdjust: set factor to 1.42
ElecMinimize: Iter:  15  F: -512.033524651276480  |grad|_K:  8.864e-06  alpha:  5.838e-01  linmin:  7.283e-06  t[s]:    997.71
	Linear fluid (dielectric constant: 90.5) occupying 0.850365 of unit cell:	Completed after 15 iterations at t[s]:   1024.04
	Linear fluid (dielectric constant: 90.5) occupying 0.850361 of unit cell:	Completed after 0 iterations at t[s]:   1036.93
	FillingsUpdate:  mu: -0.053587889  nElectrons: 108.000000
	SubspaceRotationAdjust: set factor to 1.44
ElecMinimize: Iter:  16  F: -512.039347237027073  |grad|_K:  8.442e-06  alpha:  5.793e-01  linmin:  6.144e-06  t[s]:   1048.94
	Linear fluid (dielectric constant: 90.5) occupying 0.850936 of unit cell:	Completed after 15 iterations at t[s]:   1075.13
	Linear fluid (dielectric constant: 90.5) occupying 0.850892 of unit cell:	Completed after 5 iterations at t[s]:   1094.72
	FillingsUpdate:  mu: -0.053977842  nElectrons: 108.000000
	SubspaceRotationAdjust: set factor to 1.47
ElecMinimize: Iter:  17  F: -512.044331025100519  |grad|_K:  7.947e-06  alpha:  5.452e-01  linmin:  6.315e-07  t[s]:   1107.06
	Linear fluid (dielectric constant: 90.5) occupying 0.851284 of unit cell:	Completed after 15 iterations at t[s]:   1133.50
	Linear fluid (dielectric constant: 90.5) occupying 0.851287 of unit cell:	Completed after 0 iterations at t[s]:   1147.44
	FillingsUpdate:  mu: -0.054307486  nElectrons: 108.000000
	SubspaceRotationAdjust: set factor to 1.49
ElecMinimize: Iter:  18  F: -512.048783878245672  |grad|_K:  7.575e-06  alpha:  5.491e-01  linmin: -3.368e-06  t[s]:   1159.46
	Linear fluid (dielectric constant: 90.5) occupying 0.851417 of unit cell:	Completed after 10 iterations at t[s]:   1180.32
	Linear fluid (dielectric constant: 90.5) occupying 0.851412 of unit cell:	Completed after 2 iterations at t[s]:   1196.26
	FillingsUpdate:  mu: -0.054599648  nElectrons: 108.000000
	SubspaceRotationAdjust: set factor to 1.52
ElecMinimize: Iter:  19  F: -512.052731685789354  |grad|_K:  7.395e-06  alpha:  5.347e-01  linmin: -4.502e-06  t[s]:   1208.68
	Linear fluid (dielectric constant: 90.5) occupying 0.851388 of unit cell:	Completed after 13 iterations at t[s]:   1232.58
	Linear fluid (dielectric constant: 90.5) occupying 0.851386 of unit cell:	Completed after 2 iterations at t[s]:   1249.73
	FillingsUpdate:  mu: -0.054910439  nElectrons: 108.000000
	SubspaceRotationAdjust: set factor to 1.54
ElecMinimize: Iter:  20  F: -512.056375348953225  |grad|_K:  6.905e-06  alpha:  5.177e-01  linmin:  9.629e-06  t[s]:   1262.20
	Linear fluid (dielectric constant: 90.5) occupying 0.851440 of unit cell:	Completed after 10 iterations at t[s]:   1282.95
	Linear fluid (dielectric constant: 90.5) occupying 0.851439 of unit cell:	Completed after 0 iterations at t[s]:   1295.76
	FillingsUpdate:  mu: -0.055212416  nElectrons: 108.000000
	SubspaceRotationAdjust: set factor to 1.56
ElecMinimize: Iter:  21  F: -512.059503304170335  |grad|_K:  6.512e-06  alpha:  5.114e-01  linmin:  3.880e-06  t[s]:   1307.98
	Linear fluid (dielectric constant: 90.5) occupying 0.851706 of unit cell:	Completed after 10 iterations at t[s]:   1328.75
	Linear fluid (dielectric constant: 90.5) occupying 0.851698 of unit cell:	Completed after 2 iterations at t[s]:   1344.80
	FillingsUpdate:  mu: -0.055409473  nElectrons: 108.000000
	SubspaceRotationAdjust: set factor to 1.59
ElecMinimize: Iter:  22  F: -512.062200632227587  |grad|_K:  6.058e-06  alpha:  4.966e-01  linmin: -2.203e-07  t[s]:   1357.13
	Linear fluid (dielectric constant: 90.5) occupying 0.852132 of unit cell:	Completed after 14 iterations at t[s]:   1381.99
	Linear fluid (dielectric constant: 90.5) occupying 0.852136 of unit cell:	Completed after 0 iterations at t[s]:   1395.11
	FillingsUpdate:  mu: -0.055603110  nElectrons: 108.000000

Dumping 'X.fillings' ... done
Dumping 'X.wfns' ... done
Dumping 'X.fluidState' ... done
Dumping 'X.ionpos' ... done
Dumping 'X.force' ... done
Dumping 'X.eigenvals' ... done
	SubspaceRotationAdjust: set factor to 1.62
ElecMinimize: Iter:  23  F: -512.064557858663534  |grad|_K:  5.685e-06  alpha:  5.001e-01  linmin: -2.895e-05  t[s]:   1409.64
	Linear fluid (dielectric constant: 90.5) occupying 0.852639 of unit cell:	Completed after 14 iterations at t[s]:   1434.86
	Linear fluid (dielectric constant: 90.5) occupying 0.852620 of unit cell:	Completed after 2 iterations at t[s]:   1451.00
	FillingsUpdate:  mu: -0.055764214  nElectrons: 108.000000
	SubspaceRotationAdjust: set factor to 1.63
ElecMinimize: Iter:  24  F: -512.066561375601054  |grad|_K:  5.221e-06  alpha:  4.815e-01  linmin:  2.475e-06  t[s]:   1463.19
	Linear fluid (dielectric constant: 90.5) occupying 0.853007 of unit cell:	Completed after 10 iterations at t[s]:   1484.04
	Linear fluid (dielectric constant: 90.5) occupying 0.853014 of unit cell:	Completed after 0 iterations at t[s]:   1496.80
	FillingsUpdate:  mu: -0.055881079  nElectrons: 108.000000
	SubspaceRotationAdjust: set factor to 1.65
ElecMinimize: Iter:  25  F: -512.068272351586984  |grad|_K:  4.918e-06  alpha:  4.893e-01  linmin:  4.864e-07  t[s]:   1509.09
	Linear fluid (dielectric constant: 90.5) occupying 0.853269 of unit cell:	Completed after 7 iterations at t[s]:   1526.63
	Linear fluid (dielectric constant: 90.5) occupying 0.853260 of unit cell:	Completed after 0 iterations at t[s]:   1539.50
	FillingsUpdate:  mu: -0.056011954  nElectrons: 108.000000
	SubspaceRotationAdjust: set factor to 1.7
ElecMinimize: Iter:  26  F: -512.069739134988367  |grad|_K:  4.668e-06  alpha:  4.725e-01  linmin: -5.137e-06  t[s]:   1551.70
	Linear fluid (dielectric constant: 90.5) occupying 0.853436 of unit cell:	Completed after 11 iterations at t[s]:   1573.53
	Linear fluid (dielectric constant: 90.5) occupying 0.853430 of unit cell:	Completed after 0 iterations at t[s]:   1586.02
	FillingsUpdate:  mu: -0.056121197  nElectrons: 108.000000
	SubspaceRotationAdjust: set factor to 1.73
ElecMinimize: Iter:  27  F: -512.071015914165969  |grad|_K:  4.352e-06  alpha:  4.556e-01  linmin: -3.183e-06  t[s]:   1601.06
	Linear fluid (dielectric constant: 90.5) occupying 0.853627 of unit cell:	Completed after 11 iterations at t[s]:   1622.68
	Linear fluid (dielectric constant: 90.5) occupying 0.853616 of unit cell:	Completed after 0 iterations at t[s]:   1635.86
	FillingsUpdate:  mu: -0.056214321  nElectrons: 108.000000
	SubspaceRotationAdjust: set factor to 1.74
ElecMinimize: Iter:  28  F: -512.072063628152137  |grad|_K:  3.981e-06  alpha:  4.304e-01  linmin: -3.938e-06  t[s]:   1651.17
	Linear fluid (dielectric constant: 90.5) occupying 0.853870 of unit cell:	Completed after 6 iterations at t[s]:   1667.80
	Linear fluid (dielectric constant: 90.5) occupying 0.853874 of unit cell:	Completed after 0 iterations at t[s]:   1681.23
	FillingsUpdate:  mu: -0.056270998  nElectrons: 108.000000
	SubspaceRotationAdjust: set factor to 1.77
ElecMinimize: Iter:  29  F: -512.072955940123506  |grad|_K:  3.753e-06  alpha:  4.372e-01  linmin:  6.444e-06  t[s]:   1693.38
	Linear fluid (dielectric constant: 90.5) occupying 0.854214 of unit cell:	Completed after 7 iterations at t[s]:   1711.25
	Linear fluid (dielectric constant: 90.5) occupying 0.854188 of unit cell:	Completed after 2 iterations at t[s]:   1729.42
	FillingsUpdate:  mu: -0.056318103  nElectrons: 108.000000
	SubspaceRotationAdjust: set factor to 1.81
ElecMinimize: Iter:  30  F: -512.073681845311626  |grad|_K:  3.520e-06  alpha:  4.036e-01  linmin: -6.448e-05  t[s]:   1741.49
	Linear fluid (dielectric constant: 90.5) occupying 0.854562 of unit cell:	Completed after 11 iterations at t[s]:   1763.41
	Linear fluid (dielectric constant: 90.5) occupying 0.854553 of unit cell:	Completed after 0 iterations at t[s]:   1776.24
	FillingsUpdate:  mu: -0.056367488  nElectrons: 108.000000

Dumping 'X.fillings' ... done
Dumping 'X.wfns' ... done
Dumping 'X.fluidState' ... done
Dumping 'X.ionpos' ... done
Dumping 'X.force' ... done
Dumping 'X.eigenvals' ... done
	SubspaceRotationAdjust: set factor to 1.83
ElecMinimize: Iter:  31  F: -512.074312529375675  |grad|_K:  3.245e-06  alpha:  3.934e-01  linmin: -1.137e-05  t[s]:   1790.67
	Linear fluid (dielectric constant: 90.5) occupying 0.854910 of unit cell:	Completed after 8 iterations at t[s]:   1809.61
	Linear fluid (dielectric constant: 90.5) occupying 0.854899 of unit cell:	Completed after 0 iterations at t[s]:   1822.25
	FillingsUpdate:  mu: -0.056390230  nElectrons: 108.000000
	SubspaceRotationAdjust: set factor to 1.84
ElecMinimize: Iter:  32  F: -512.074833426669784  |grad|_K:  3.058e-06  alpha:  3.820e-01  linmin:  2.081e-06  t[s]:   1834.27
	Linear fluid (dielectric constant: 90.5) occupying 0.855202 of unit cell:	Completed after 8 iterations at t[s]:   1852.94
	Linear fluid (dielectric constant: 90.5) occupying 0.855179 of unit cell:	Completed after 0 iterations at t[s]:   1865.68
	FillingsUpdate:  mu: -0.056424022  nElectrons: 108.000000
	SubspaceRotationAdjust: set factor to 1.88
ElecMinimize: Iter:  33  F: -512.075256501943841  |grad|_K:  2.869e-06  alpha:  3.533e-01  linmin: -8.681e-06  t[s]:   1877.76
	Linear fluid (dielectric constant: 90.5) occupying 0.855399 of unit cell:	Completed after 6 iterations at t[s]:   1894.56
	Linear fluid (dielectric constant: 90.5) occupying 0.855394 of unit cell:	Completed after 0 iterations at t[s]:   1906.98
	FillingsUpdate:  mu: -0.056446661  nElectrons: 108.000000
	SubspaceRotationAdjust: set factor to 1.92
ElecMinimize: Iter:  34  F: -512.075623694627780  |grad|_K:  2.642e-06  alpha:  3.466e-01  linmin: -2.650e-05  t[s]:   1918.98
	Linear fluid (dielectric constant: 90.5) occupying 0.855562 of unit cell:	Completed after 5 iterations at t[s]:   1934.76
	Linear fluid (dielectric constant: 90.5) occupying 0.855553 of unit cell:	Completed after 0 iterations at t[s]:   1948.05
	FillingsUpdate:  mu: -0.056471713  nElectrons: 108.000000
	SubspaceRotationAdjust: set factor to 1.94
ElecMinimize: Iter:  35  F: -512.075921607316445  |grad|_K:  2.471e-06  alpha:  3.294e-01  linmin: -8.488e-06  t[s]:   1960.09
	Linear fluid (dielectric constant: 90.5) occupying 0.855692 of unit cell:	Completed after 4 iterations at t[s]:   1974.72
	Linear fluid (dielectric constant: 90.5) occupying 0.855690 of unit cell:	Completed after 0 iterations at t[s]:   1987.17
	FillingsUpdate:  mu: -0.056498862  nElectrons: 108.000000
	SubspaceRotationAdjust: set factor to 1.95
ElecMinimize: Iter:  36  F: -512.076178750712870  |grad|_K:  2.239e-06  alpha:  3.254e-01  linmin:  3.894e-06  t[s]:   1999.19
	Linear fluid (dielectric constant: 90.5) occupying 0.855810 of unit cell:	Completed after 4 iterations at t[s]:   2014.05
	Linear fluid (dielectric constant: 90.5) occupying 0.855811 of unit cell:	Completed after 0 iterations at t[s]:   2026.40
	FillingsUpdate:  mu: -0.056510038  nElectrons: 108.000000
	SubspaceRotationAdjust: set factor to 1.99
ElecMinimize: Iter:  37  F: -512.076388819771751  |grad|_K:  2.121e-06  alpha:  3.272e-01  linmin:  6.658e-06  t[s]:   2038.43
	Linear fluid (dielectric constant: 90.5) occupying 0.855936 of unit cell:	Completed after 3 iterations at t[s]:   2052.01
	Linear fluid (dielectric constant: 90.5) occupying 0.855931 of unit cell:	Completed after 0 iterations at t[s]:   2065.36
	FillingsUpdate:  mu: -0.056516486  nElectrons: 108.000000
	SubspaceRotationAdjust: set factor to 2.03
ElecMinimize: Iter:  38  F: -512.076569754036200  |grad|_K:  1.972e-06  alpha:  3.137e-01  linmin: -9.442e-06  t[s]:   2077.43
	Linear fluid (dielectric constant: 90.5) occupying 0.856058 of unit cell:	Completed after 8 iterations at t[s]:   2096.22
	Linear fluid (dielectric constant: 90.5) occupying 0.856053 of unit cell:	Completed after 0 iterations at t[s]:   2108.89
	FillingsUpdate:  mu: -0.056494435  nElectrons: 108.000000

Dumping 'X.fillings' ... done
Dumping 'X.wfns' ... done
Dumping 'X.fluidState' ... done
Dumping 'X.ionpos' ... done
Dumping 'X.force' ... done
Dumping 'X.eigenvals' ... done
	SubspaceRotationAdjust: set factor to 2.05
ElecMinimize: Iter:  39  F: -512.076721114110910  |grad|_K:  1.820e-06  alpha:  3.016e-01  linmin: -4.342e-06  t[s]:   2122.45
	Linear fluid (dielectric constant: 90.5) occupying 0.856171 of unit cell:	Completed after 8 iterations at t[s]:   2141.23
	Linear fluid (dielectric constant: 90.5) occupying 0.856172 of unit cell:	Completed after 0 iterations at t[s]:   2153.98
	FillingsUpdate:  mu: -0.056496103  nElectrons: 108.000000
	SubspaceRotationAdjust: set factor to 2.07
ElecMinimize: Iter:  40  F: -512.076850903551531  |grad|_K:  1.689e-06  alpha:  3.040e-01  linmin:  8.417e-07  t[s]:   2166.11
	Linear fluid (dielectric constant: 90.5) occupying 0.856272 of unit cell:	Completed after 8 iterations at t[s]:   2185.05
	Linear fluid (dielectric constant: 90.5) occupying 0.856263 of unit cell:	Completed after 0 iterations at t[s]:   2197.68
	FillingsUpdate:  mu: -0.056501318  nElectrons: 108.000000
	SubspaceRotationAdjust: set factor to 2.11
ElecMinimize: Iter:  41  F: -512.076952931484357  |grad|_K:  1.583e-06  alpha:  2.791e-01  linmin: -7.142e-05  t[s]:   2209.75
	Linear fluid (dielectric constant: 90.5) occupying 0.856327 of unit cell:	Completed after 4 iterations at t[s]:   2224.37
	Linear fluid (dielectric constant: 90.5) occupying 0.856326 of unit cell:	Completed after 0 iterations at t[s]:   2236.49
	FillingsUpdate:  mu: -0.056519557  nElectrons: 108.000000
	SubspaceRotationAdjust: set factor to 2.15
ElecMinimize: Iter:  42  F: -512.077042469616117  |grad|_K:  1.458e-06  alpha:  2.763e-01  linmin: -1.088e-05  t[s]:   2248.64
	Linear fluid (dielectric constant: 90.5) occupying 0.856363 of unit cell:	Completed after 4 iterations at t[s]:   2263.32
	Linear fluid (dielectric constant: 90.5) occupying 0.856363 of unit cell:	Completed after 0 iterations at t[s]:   2275.72
	FillingsUpdate:  mu: -0.056513357  nElectrons: 108.000000
	SubspaceRotationAdjust: set factor to 2.17
ElecMinimize: Iter:  43  F: -512.077118137685261  |grad|_K:  1.368e-06  alpha:  2.751e-01  linmin: -2.359e-06  t[s]:   2287.78
	Linear fluid (dielectric constant: 90.5) occupying 0.856385 of unit cell:	Completed after 4 iterations at t[s]:   2302.32
	Linear fluid (dielectric constant: 90.5) occupying 0.856383 of unit cell:	Completed after 0 iterations at t[s]:   2314.66
	FillingsUpdate:  mu: -0.056516218  nElectrons: 108.000000
	SubspaceRotationAdjust: set factor to 2.19
ElecMinimize: Iter:  44  F: -512.077179230118531  |grad|_K:  1.261e-06  alpha:  2.541e-01  linmin: -1.289e-05  t[s]:   2326.82
	Linear fluid (dielectric constant: 90.5) occupying 0.856398 of unit cell:	Completed after 0 iterations at t[s]:   2336.20
	Linear fluid (dielectric constant: 90.5) occupying 0.856398 of unit cell:	Completed after 0 iterations at t[s]:   2348.23
	FillingsUpdate:  mu: -0.056510174  nElectrons: 108.000000
	SubspaceRotationAdjust: set factor to 2.23
ElecMinimize: Iter:  45  F: -512.077230813354163  |grad|_K:  1.168e-06  alpha:  2.505e-01  linmin:  5.713e-06  t[s]:   2360.25
	Linear fluid (dielectric constant: 90.5) occupying 0.856416 of unit cell:	Completed after 4 iterations at t[s]:   2374.88
	Linear fluid (dielectric constant: 90.5) occupying 0.856416 of unit cell:	Completed after 0 iterations at t[s]:   2387.16
	FillingsUpdate:  mu: -0.056508758  nElectrons: 108.000000
	SubspaceRotationAdjust: set factor to 2.26
ElecMinimize: Iter:  46  F: -512.077274323216102  |grad|_K:  1.084e-06  alpha:  2.484e-01  linmin:  7.473e-07  t[s]:   2399.35
	Linear fluid (dielectric constant: 90.5) occupying 0.856438 of unit cell:	Completed after 4 iterations at t[s]:   2413.92
	Linear fluid (dielectric constant: 90.5) occupying 0.856437 of unit cell:	Completed after 0 iterations at t[s]:   2426.35
	FillingsUpdate:  mu: -0.056508969  nElectrons: 108.000000

Dumping 'X.fillings' ... done
Dumping 'X.wfns' ... done
Dumping 'X.fluidState' ... done
Dumping 'X.ionpos' ... done
Dumping 'X.force' ... done
Dumping 'X.eigenvals' ... done
	SubspaceRotationAdjust: set factor to 2.28
ElecMinimize: Iter:  47  F: -512.077309440118370  |grad|_K:  1.021e-06  alpha:  2.330e-01  linmin:  3.473e-06  t[s]:   2440.11
	Linear fluid (dielectric constant: 90.5) occupying 0.856458 of unit cell:	Completed after 3 iterations at t[s]:   2453.68
	Linear fluid (dielectric constant: 90.5) occupying 0.856458 of unit cell:	Completed after 0 iterations at t[s]:   2467.06
	FillingsUpdate:  mu: -0.056506210  nElectrons: 108.000000
	SubspaceRotationAdjust: set factor to 2.31
ElecMinimize: Iter:  48  F: -512.077340095677528  |grad|_K:  9.236e-07  alpha:  2.301e-01  linmin: -1.177e-05  t[s]:   2479.19
	Linear fluid (dielectric constant: 90.5) occupying 0.856476 of unit cell:	Completed after 4 iterations at t[s]:   2493.74
	Linear fluid (dielectric constant: 90.5) occupying 0.856478 of unit cell:	Completed after 0 iterations at t[s]:   2506.03
	FillingsUpdate:  mu: -0.056505788  nElectrons: 108.000000
	SubspaceRotationAdjust: set factor to 2.34
ElecMinimize: Iter:  49  F: -512.077367812128159  |grad|_K:  8.987e-07  alpha:  2.512e-01  linmin:  6.705e-05  t[s]:   2518.24
	Linear fluid (dielectric constant: 90.5) occupying 0.856495 of unit cell:	Completed after 5 iterations at t[s]:   2533.91
	Linear fluid (dielectric constant: 90.5) occupying 0.856493 of unit cell:	Completed after 0 iterations at t[s]:   2546.14
	FillingsUpdate:  mu: -0.056502172  nElectrons: 108.000000
	SubspaceRotationAdjust: set factor to 2.37
ElecMinimize: Iter:  50  F: -512.077390915625415  |grad|_K:  8.383e-07  alpha:  2.244e-01  linmin:  5.534e-06  t[s]:   2558.33
	Linear fluid (dielectric constant: 90.5) occupying 0.856501 of unit cell:	Completed after 0 iterations at t[s]:   2567.77
	Linear fluid (dielectric constant: 90.5) occupying 0.856501 of unit cell:	Completed after 0 iterations at t[s]:   2581.74
	FillingsUpdate:  mu: -0.056505894  nElectrons: 108.000000
	SubspaceRotationAdjust: set factor to 2.4
ElecMinimize: Iter:  51  F: -512.077410012113546  |grad|_K:  7.591e-07  alpha:  2.128e-01  linmin: -9.043e-06  t[s]:   2593.92
	Linear fluid (dielectric constant: 90.5) occupying 0.856505 of unit cell:	Completed after 4 iterations at t[s]:   2608.65
	Linear fluid (dielectric constant: 90.5) occupying 0.856505 of unit cell:	Completed after 0 iterations at t[s]:   2620.18
	FillingsUpdate:  mu: -0.056504384  nElectrons: 108.000000
	SubspaceRotationAdjust: set factor to 2.43
ElecMinimize: Iter:  52  F: -512.077426248356119  |grad|_K:  6.958e-07  alpha:  2.173e-01  linmin: -2.115e-05  t[s]:   2632.17
	Linear fluid (dielectric constant: 90.5) occupying 0.856505 of unit cell:	Completed after 0 iterations at t[s]:   2642.50
	Linear fluid (dielectric constant: 90.5) occupying 0.856505 of unit cell:	Completed after 0 iterations at t[s]:   2654.49
	FillingsUpdate:  mu: -0.056504640  nElectrons: 108.000000
	SubspaceRotationAdjust: set factor to 2.46
ElecMinimize: Iter:  53  F: -512.077439408780492  |grad|_K:  6.552e-07  alpha:  2.082e-01  linmin:  5.150e-05  t[s]:   2666.72
	Linear fluid (dielectric constant: 90.5) occupying 0.856505 of unit cell:	Completed after 4 iterations at t[s]:   2681.48
	Linear fluid (dielectric constant: 90.5) occupying 0.856505 of unit cell:	Completed after 0 iterations at t[s]:   2693.56
	FillingsUpdate:  mu: -0.056502170  nElectrons: 108.000000
	SubspaceRotationAdjust: set factor to 2.49
ElecMinimize: Iter:  54  F: -512.077449870978398  |grad|_K:  5.909e-07  alpha:  1.914e-01  linmin: -1.821e-05  t[s]:   2705.55
	Linear fluid (dielectric constant: 90.5) occupying 0.856503 of unit cell:	Completed after 0 iterations at t[s]:   2714.95
	Linear fluid (dielectric constant: 90.5) occupying 0.856503 of unit cell:	Completed after 0 iterations at t[s]:   2727.02
	FillingsUpdate:  mu: -0.056502874  nElectrons: 108.000000

Dumping 'X.fillings' ... done
Dumping 'X.wfns' ... done
Dumping 'X.fluidState' ... done
Dumping 'X.ionpos' ... done
Dumping 'X.force' ... done
Dumping 'X.eigenvals' ... done
	SubspaceRotationAdjust: set factor to 2.51
ElecMinimize: Iter:  55  F: -512.077458854694328  |grad|_K:  5.735e-07  alpha:  1.979e-01  linmin:  6.522e-06  t[s]:   2741.34
	Linear fluid (dielectric constant: 90.5) occupying 0.856503 of unit cell:	Completed after 0 iterations at t[s]:   2751.89
	Linear fluid (dielectric constant: 90.5) occupying 0.856503 of unit cell:	Completed after 0 iterations at t[s]:   2763.66
	FillingsUpdate:  mu: -0.056504276  nElectrons: 108.000000
	SubspaceRotationAdjust: set factor to 2.54
ElecMinimize: Iter:  56  F: -512.077466388438779  |grad|_K:  5.275e-07  alpha:  1.800e-01  linmin: -2.340e-06  t[s]:   2775.74
	Linear fluid (dielectric constant: 90.5) occupying 0.856506 of unit cell:	Completed after 3 iterations at t[s]:   2789.29
	Linear fluid (dielectric constant: 90.5) occupying 0.856506 of unit cell:	Completed after 0 iterations at t[s]:   2801.85
	FillingsUpdate:  mu: -0.056506220  nElectrons: 108.000000
	SubspaceRotationAdjust: set factor to 2.59
ElecMinimize: Iter:  57  F: -512.077472853856193  |grad|_K:  5.052e-07  alpha:  1.805e-01  linmin: -1.067e-04  t[s]:   2813.82
	Linear fluid (dielectric constant: 90.5) occupying 0.856514 of unit cell:	Completed after 0 iterations at t[s]:   2823.27
	Linear fluid (dielectric constant: 90.5) occupying 0.856514 of unit cell:	Completed after 0 iterations at t[s]:   2838.92
	FillingsUpdate:  mu: -0.056500286  nElectrons: 108.000000
	SubspaceRotationAdjust: set factor to 2.62
ElecMinimize: Iter:  58  F: -512.077478963169483  |grad|_K:  4.934e-07  alpha:  1.797e-01  linmin: -3.136e-07  t[s]:   2851.00
	Linear fluid (dielectric constant: 90.5) occupying 0.856521 of unit cell:	Completed after 4 iterations at t[s]:   2865.76
	Linear fluid (dielectric constant: 90.5) occupying 0.856521 of unit cell:	Completed after 0 iterations at t[s]:   2877.93
	FillingsUpdate:  mu: -0.056499213  nElectrons: 108.000000
	SubspaceRotationAdjust: set factor to 2.64
ElecMinimize: Iter:  59  F: -512.077483951054546  |grad|_K:  4.529e-07  alpha:  1.612e-01  linmin: -3.649e-05  t[s]:   2889.89
	Linear fluid (dielectric constant: 90.5) occupying 0.856523 of unit cell:	Completed after 0 iterations at t[s]:   2899.28
	Linear fluid (dielectric constant: 90.5) occupying 0.856524 of unit cell:	Completed after 0 iterations at t[s]:   2911.38
	FillingsUpdate:  mu: -0.056500377  nElectrons: 108.000000
	SubspaceRotationAdjust: set factor to 2.67
ElecMinimize: Iter:  60  F: -512.077488663651252  |grad|_K:  4.725e-07  alpha:  1.732e-01  linmin:  1.882e-05  t[s]:   2923.40
	Linear fluid (dielectric constant: 90.5) occupying 0.856525 of unit cell:	Completed after 0 iterations at t[s]:   2932.95
	Linear fluid (dielectric constant: 90.5) occupying 0.856525 of unit cell:	Completed after 0 iterations at t[s]:   2949.27
	FillingsUpdate:  mu: -0.056499919  nElectrons: 108.000000
	SubspaceRotationAdjust: set factor to 2.69
ElecMinimize: Iter:  61  F: -512.077493046311588  |grad|_K:  4.333e-07  alpha:  1.568e-01  linmin:  5.954e-06  t[s]:   2961.25
	Linear fluid (dielectric constant: 90.5) occupying 0.856525 of unit cell:	Completed after 4 iterations at t[s]:   2975.56
	Linear fluid (dielectric constant: 90.5) occupying 0.856525 of unit cell:	Completed after 0 iterations at t[s]:   2986.82
	FillingsUpdate:  mu: -0.056491922  nElectrons: 108.000000
	SubspaceRotationAdjust: set factor to 2.74
ElecMinimize: Iter:  62  F: -512.077496198323388  |grad|_K:  4.016e-07  alpha:  1.356e-01  linmin: -7.434e-04  t[s]:   2998.99
	Linear fluid (dielectric constant: 90.5) occupying 0.856524 of unit cell:	Completed after 0 iterations at t[s]:   3008.32
	Linear fluid (dielectric constant: 90.5) occupying 0.856524 of unit cell:	Completed after 0 iterations at t[s]:   3020.34
	FillingsUpdate:  mu: -0.056492701  nElectrons: 108.000000

Dumping 'X.fillings' ... done
Dumping 'X.wfns' ... done
Dumping 'X.fluidState' ... done
Dumping 'X.ionpos' ... done
Dumping 'X.force' ... done
Dumping 'X.eigenvals' ... done
	SubspaceRotationAdjust: set factor to 2.77
ElecMinimize: Iter:  63  F: -512.077500021768969  |grad|_K:  3.885e-07  alpha:  1.696e-01  linmin: -8.538e-06  t[s]:   3034.11
	Linear fluid (dielectric constant: 90.5) occupying 0.856522 of unit cell:	Completed after 0 iterations at t[s]:   3043.57
	Linear fluid (dielectric constant: 90.5) occupying 0.856522 of unit cell:	Completed after 0 iterations at t[s]:   3056.32
	FillingsUpdate:  mu: -0.056493941  nElectrons: 108.000000
	SubspaceRotationAdjust: set factor to 2.79
ElecMinimize: Iter:  64  F: -512.077502812611783  |grad|_K:  3.882e-07  alpha:  1.440e-01  linmin: -9.724e-06  t[s]:   3068.34
	Linear fluid (dielectric constant: 90.5) occupying 0.856521 of unit cell:	Completed after 0 iterations at t[s]:   3077.79
	Linear fluid (dielectric constant: 90.5) occupying 0.856521 of unit cell:	Completed after 0 iterations at t[s]:   3090.61
	FillingsUpdate:  mu: -0.056494218  nElectrons: 108.000000
	SubspaceRotationAdjust: set factor to 2.82
ElecMinimize: Iter:  65  F: -512.077505427511255  |grad|_K:  3.672e-07  alpha:  1.326e-01  linmin:  2.668e-05  t[s]:   3102.71
	Linear fluid (dielectric constant: 90.5) occupying 0.856521 of unit cell:	Completed after 0 iterations at t[s]:   3113.33
	Linear fluid (dielectric constant: 90.5) occupying 0.856521 of unit cell:	Completed after 0 iterations at t[s]:   3124.69
	FillingsUpdate:  mu: -0.056494563  nElectrons: 108.000000
	SubspaceRotationAdjust: set factor to 2.87
ElecMinimize: Iter:  66  F: -512.077507412412956  |grad|_K:  3.297e-07  alpha:  1.193e-01  linmin: -3.545e-05  t[s]:   3136.92
	Linear fluid (dielectric constant: 90.5) occupying 0.856522 of unit cell:	Completed after 0 iterations at t[s]:   3146.30
	Linear fluid (dielectric constant: 90.5) occupying 0.856523 of unit cell:	Completed after 0 iterations at t[s]:   3163.44
	FillingsUpdate:  mu: -0.056491226  nElectrons: 108.000000
	SubspaceRotationAdjust: set factor to 2.91
ElecMinimize: Iter:  67  F: -512.077509356283144  |grad|_K:  3.088e-07  alpha:  1.385e-01  linmin:  1.150e-04  t[s]:   3175.01
	Linear fluid (dielectric constant: 90.5) occupying 0.856524 of unit cell:	Completed after 2 iterations at t[s]:   3187.30
	Linear fluid (dielectric constant: 90.5) occupying 0.856524 of unit cell:	Completed after 0 iterations at t[s]:   3198.53
	FillingsUpdate:  mu: -0.056491529  nElectrons: 108.000000
	SubspaceRotationAdjust: set factor to 2.95
ElecMinimize: Iter:  68  F: -512.077510808838383  |grad|_K:  2.839e-07  alpha:  1.240e-01  linmin: -7.171e-05  t[s]:   3210.63
	Linear fluid (dielectric constant: 90.5) occupying 0.856526 of unit cell:	Completed after 0 iterations at t[s]:   3220.01
	Linear fluid (dielectric constant: 90.5) occupying 0.856525 of unit cell:	Completed after 0 iterations at t[s]:   3232.73
	FillingsUpdate:  mu: -0.056492051  nElectrons: 108.000000
	SubspaceRotationAdjust: set factor to 2.97
ElecMinimize: Iter:  69  F: -512.077512011033150  |grad|_K:  2.594e-07  alpha:  1.104e-01  linmin: -4.031e-05  t[s]:   3244.85
	Linear fluid (dielectric constant: 90.5) occupying 0.856527 of unit cell:	Completed after 0 iterations at t[s]:   3254.26
	Linear fluid (dielectric constant: 90.5) occupying 0.856527 of unit cell:	Completed after 0 iterations at t[s]:   3266.99
	FillingsUpdate:  mu: -0.056492321  nElectrons: 108.000000
	SubspaceRotationAdjust: set factor to 2.99
ElecMinimize: Iter:  70  F: -512.077513128264172  |grad|_K:  2.512e-07  alpha:  1.230e-01  linmin: -2.696e-06  t[s]:   3279.10
	Linear fluid (dielectric constant: 90.5) occupying 0.856529 of unit cell:	Completed after 0 iterations at t[s]:   3288.46
	Linear fluid (dielectric constant: 90.5) occupying 0.856528 of unit cell:	Completed after 0 iterations at t[s]:   3301.35
	FillingsUpdate:  mu: -0.056493422  nElectrons: 108.000000

Dumping 'X.fillings' ... done
Dumping 'X.wfns' ... done
Dumping 'X.fluidState' ... done
Dumping 'X.ionpos' ... done
Dumping 'X.force' ... done
Dumping 'X.eigenvals' ... done
	SubspaceRotationAdjust: set factor to 3.02
ElecMinimize: Iter:  71  F: -512.077513935661727  |grad|_K:  2.653e-07  alpha:  9.878e-02  linmin:  1.704e-05  t[s]:   3314.97
	Linear fluid (dielectric constant: 90.5) occupying 0.856530 of unit cell:	Completed after 0 iterations at t[s]:   3325.47
	Linear fluid (dielectric constant: 90.5) occupying 0.856530 of unit cell:	Completed after 0 iterations at t[s]:   3336.88
	FillingsUpdate:  mu: -0.056493863  nElectrons: 108.000000
	SubspaceRotationAdjust: set factor to 3.07
ElecMinimize: Iter:  72  F: -512.077514528910001  |grad|_K:  2.345e-07  alpha:  7.117e-02  linmin: -1.204e-04  t[s]:   3349.03
	Linear fluid (dielectric constant: 90.5) occupying 0.856531 of unit cell:	Completed after 0 iterations at t[s]:   3358.60
	Linear fluid (dielectric constant: 90.5) occupying 0.856531 of unit cell:	Completed after 0 iterations at t[s]:   3371.22
	FillingsUpdate:  mu: -0.056493678  nElectrons: 108.000000
	SubspaceRotationAdjust: set factor to 3.12
ElecMinimize: Iter:  73  F: -512.077515171327946  |grad|_K:  2.001e-07  alpha:  8.764e-02  linmin: -8.554e-05  t[s]:   3383.25
	Linear fluid (dielectric constant: 90.5) occupying 0.856532 of unit cell:	Completed after 0 iterations at t[s]:   3392.74
	Linear fluid (dielectric constant: 90.5) occupying 0.856533 of unit cell:	Completed after 0 iterations at t[s]:   3408.28
	FillingsUpdate:  mu: -0.056487146  nElectrons: 108.000000
	SubspaceRotationAdjust: set factor to 3.14
ElecMinimize: Iter:  74  F: -512.077515808219914  |grad|_K:  2.223e-07  alpha:  1.197e-01  linmin:  4.195e-05  t[s]:   3423.71
	Linear fluid (dielectric constant: 90.5) occupying 0.856533 of unit cell:	Completed after 0 iterations at t[s]:   3433.12
	Linear fluid (dielectric constant: 90.5) occupying 0.856533 of unit cell:	Completed after 0 iterations at t[s]:   3445.89
	FillingsUpdate:  mu: -0.056487302  nElectrons: 108.000000
	SubspaceRotationAdjust: set factor to 3.24
ElecMinimize: Iter:  75  F: -512.077516266770772  |grad|_K:  2.165e-07  alpha:  7.898e-02  linmin: -9.004e-07  t[s]:   3458.06
	Linear fluid (dielectric constant: 90.5) occupying 0.856532 of unit cell:	Completed after 0 iterations at t[s]:   3467.44
	Linear fluid (dielectric constant: 90.5) occupying 0.856532 of unit cell:	Completed after 0 iterations at t[s]:   3479.48
	FillingsUpdate:  mu: -0.056487465  nElectrons: 108.000000
	SubspaceRotationAdjust: set factor to 3.37
ElecMinimize: Iter:  76  F: -512.077516595975908  |grad|_K:  1.975e-07  alpha:  5.679e-02  linmin: -3.266e-05  t[s]:   3491.53
	Linear fluid (dielectric constant: 90.5) occupying 0.856530 of unit cell:	Completed after 0 iterations at t[s]:   3500.99
	Linear fluid (dielectric constant: 90.5) occupying 0.856530 of unit cell:	Completed after 0 iterations at t[s]:   3512.87
	FillingsUpdate:  mu: -0.056487680  nElectrons: 108.000000
	SubspaceRotationAdjust: set factor to 3.48
ElecMinimize: Iter:  77  F: -512.077516935637163  |grad|_K:  2.012e-07  alpha:  6.403e-02  linmin: -1.509e-04  t[s]:   3524.99
	Linear fluid (dielectric constant: 90.5) occupying 0.856527 of unit cell:	Completed after 0 iterations at t[s]:   3534.37
	Linear fluid (dielectric constant: 90.5) occupying 0.856527 of unit cell:	Completed after 0 iterations at t[s]:   3546.42
	FillingsUpdate:  mu: -0.056487876  nElectrons: 108.000000
	SubspaceRotationAdjust: set factor to 3.63
ElecMinimize: Iter:  78  F: -512.077517242585031  |grad|_K:  1.774e-07  alpha:  5.348e-02  linmin: -7.627e-04  t[s]:   3558.53

*************** JDFTx 1.7.0 (git hash 29f622bc) ***************

Start date and time: Fri Jan 12 13:54:06 2024
Executable jdftx with command-line: -c 2 -i X.in -o X.out
Running on hosts (process indices):  ac0531 (0-9)
Divided in process groups (process indices):  0 (0)  1 (1)  2 (2)  3 (3)  4 (4)  5 (5)  6 (6)  7 (7)  8 (8)  9 (9)
Resource initialization completed at t[s]:      0.00
Run totals: 10 processes, 20 threads, 0 GPUs


Input parsed successfully to the following command list (including defaults):

basis kpoint-dependent
cache-projectors no
coords-type Lattice
core-overlap-check vector
coulomb-interaction Slab 001
coulomb-truncation-embed 0 0 0.5
davidson-band-ratio 1.1
density-of-states Etol 1.000000e-06 Esigma 0.000000e+00 \
		Complete \
	Total \
		Occupied \
	Total
dump End State IonicPositions Lattice ElecDensity CoreDensity EigStats DOS
dump Electronic State Forces
dump Ionic State IonicPositions Forces Lattice DOS
dump-interval Electronic 8
dump-interval Ionic 4
dump-name X.$var
elec-cutoff 50
elec-eigen-algo Davidson
elec-ex-corr gga-PBE
elec-smearing Cold 0.0095
electronic-minimize  \
	dirUpdateScheme      FletcherReeves \
	linminMethod         DirUpdateRecommended \
	nIterations          2000 \
	history              15 \
	knormThreshold       0 \
	energyDiffThreshold  1e-07 \
	nEnergyDiff          2 \
	alphaTstart          1 \
	alphaTmin            1e-10 \
	updateTestStepSize   yes \
	alphaTreduceFactor   0.1 \
	alphaTincreaseFactor 3 \
	nAlphaAdjustMax      3 \
	wolfeEnergy          0.0001 \
	wolfeGradient        0.9 \
	fdTest               no
exchange-regularization WignerSeitzTruncated
fluid LinearPCM 298.000000 1.013250
fluid-ex-corr (null) lda-PZ
fluid-gummel-loop 10 1.000000e-05
fluid-minimize  \
	dirUpdateScheme      PolakRibiere \
	linminMethod         DirUpdateRecommended \
	nIterations          400 \
	history              15 \
	knormThreshold       1e-11 \
	energyDiffThreshold  0 \
	nEnergyDiff          2 \
	alphaTstart          1 \
	alphaTmin            1e-10 \
	updateTestStepSize   yes \
	alphaTreduceFactor   0.1 \
	alphaTincreaseFactor 3 \
	nAlphaAdjustMax      6 \
	wolfeEnergy          0.0001 \
	wolfeGradient        0.9 \
	fdTest               no
fluid-solvent EC 15.0047 ScalarEOS \
	epsBulk 90.5 \
	pMol 2.88 \
	epsInf 2 \
	Pvap 7.53424e-14 \
	sigmaBulk 3.51e-05 \
	Rvdw 0 \
	Res 0 \
	tauNuc 343133
forces-output-coords Positions
initial-state X.$var
ion Na   0.000000000000000   0.000000000000000   0.420928163411261 1
ion Na   0.250000000000000   0.250000000000000   0.500000000000000 1
ion Na   0.000000000000000   0.000000000000000   0.579071836588739 1
ion Na   0.000000000000000   0.500000000000000   0.420928163411261 1
ion Na   0.250000000000000   0.750000000000000   0.500000000000000 1
ion Na   0.000000000000000   0.500000000000000   0.579071836588739 1
ion Na   0.500000000000000   0.000000000000000   0.420928163411261 1
ion Na   0.750000000000000   0.250000000000000   0.500000000000000 1
ion Na   0.500000000000000   0.000000000000000   0.579071836588739 1
ion Na   0.500000000000000   0.500000000000000   0.420928163411261 1
ion Na   0.750000000000000   0.750000000000000   0.500000000000000 1
ion Na   0.500000000000000   0.500000000000000   0.579071836588739 1
ion-species SG15/$ID_ONCV_PBE.upf
ion-width Ecut
ionic-minimize  \
	dirUpdateScheme      L-BFGS \
	linminMethod         DirUpdateRecommended \
	nIterations          200 \
	history              15 \
	knormThreshold       0.0001 \
	energyDiffThreshold  1e-06 \
	nEnergyDiff          2 \
	alphaTstart          1 \
	alphaTmin            1e-10 \
	updateTestStepSize   yes \
	alphaTreduceFactor   0.1 \
	alphaTincreaseFactor 3 \
	nAlphaAdjustMax      3 \
	wolfeEnergy          0.0001 \
	wolfeGradient        0.9 \
	fdTest               no
kpoint   0.000000000000   0.000000000000   0.000000000000  1.00000000000000
kpoint-folding 7 7 1 
latt-move-scale 1 1 1
latt-scale 1 1 1 
lattice  \
	  15.877738227600000   -0.000000000000000   -0.000000000000000  \
	   0.000000000000000   15.877738227600000   -0.000000000000000  \
	   0.000000000000000    0.000000000000000   50.272865136000000 
lattice-minimize  \
	dirUpdateScheme      L-BFGS \
	linminMethod         DirUpdateRecommended \
	nIterations          0 \
	history              15 \
	knormThreshold       0 \
	energyDiffThreshold  1e-06 \
	nEnergyDiff          2 \
	alphaTstart          1 \
	alphaTmin            1e-10 \
	updateTestStepSize   yes \
	alphaTreduceFactor   0.1 \
	alphaTincreaseFactor 3 \
	nAlphaAdjustMax      3 \
	wolfeEnergy          0.0001 \
	wolfeGradient        0.9 \
	fdTest               no
lcao-params -1 1e-06 0.0095
pcm-variant GLSSA13
spintype no-spin
subspace-rotation-factor 1 yes
symmetries automatic
symmetry-threshold 0.0001



---------- Setting up symmetries ----------

Found 16 point-group symmetries of the bravais lattice
Found 64 space-group symmetries with basis
Applied RMS atom displacement 0 bohrs to make symmetries exact.

---------- Initializing the Grid ----------
R = 
[      15.8777            0            0  ]
[            0      15.8777            0  ]
[            0            0      50.2729  ]
unit cell volume = 12673.9
G =
[   0.395723          0          0  ]
[         -0   0.395723          0  ]
[          0         -0   0.124982  ]
Minimum fftbox size, Smin = [  104  104  324  ]
Chosen fftbox size, S = [  108  108  324  ]

---------- Exchange Correlation functional ----------
Initalized PBE GGA exchange.
Initalized PBE GGA correlation.

---------- Setting up pseudopotentials ----------
Width of ionic core gaussian charges (only for fluid interactions / plotting) set to 0.251327

Reading pseudopotential file '/net/people/plgrid/plgigoro/jdftx1.7.0_oblas_fftw_libxc_git_ares/build/pseudopotentials/SG15/Na_ONCV_PBE.upf':
  'Na' pseudopotential, 'PBE' functional
  Generated using ONCVPSP code by D. R. Hamann
  Author: Martin Schlipf and Francois Gygi  Date: 150915.
  9 valence electrons, 3 orbitals, 4 projectors, 1992 radial grid points, with lMax = 1
  Transforming local potential to a uniform radial grid of dG=0.02 with 1824 points.
  Transforming nonlocal projectors to a uniform radial grid of dG=0.02 with 680 points.
    2S    l: 0   occupation:  2.0   eigenvalue: -2.085640
    2P    l: 1   occupation:  6.0   eigenvalue: -1.053708
    3S    l: 0   occupation:  1.0   eigenvalue: -0.100838
  Transforming atomic orbitals to a uniform radial grid of dG=0.02 with 680 points.
  Core radius for overlap checks: 2.01 bohrs.
  Reading pulay file /net/people/plgrid/plgigoro/jdftx1.7.0_oblas_fftw_libxc_git_ares/build/pseudopotentials/SG15/Na_ONCV_PBE.pulay ... using dE_dnG = -4.628430e-06 computed for Ecut = 50.

Initialized 1 species with 12 total atoms.

Folded 1 k-points by 7x7x1 to 49 k-points.

---------- Setting up k-points, bands, fillings ----------
Reduced to 10 k-points under symmetry. 
Computing the number of bands and number of electrons
Reading initial fillings from file X.fillings.
nElectrons: 108.000000   nBands: 60   nStates: 10

----- Setting up reduced wavefunction bases (one per k-point) -----
average nbasis = 214017.571 , ideal nbasis = 214022.738

----- Initializing Supercell corresponding to k-point mesh -----
Lattice vector linear combinations in supercell:
[   7   0   0  ]
[   0   7   0  ]
[   0   0   1  ]
Supercell lattice vectors:
[  111.144  0  0  ]
[  0  111.144  0  ]
[  0  0  50.2729  ]

---------- Setting up coulomb interaction ----------
Fluid mode embedding: using embedded box, but periodic Coulomb kernel.
(Fluid response is responsible for (approximate) separation between periodic images.)
Setting up double-sized grid for truncated Coulomb potentials:
R = 
[      15.8777            0            0  ]
[            0      15.8777            0  ]
[            0            0      100.546  ]
unit cell volume = 25347.8
G =
[   0.395723          0          0  ]
[         -0   0.395723          0  ]
[          0         -0  0.0624908  ]
Chosen fftbox size, S = [  108  108  648  ]
Integer grid location selected as the embedding center:
   Grid: [  0  0  162  ]
   Lattice: [  0  0  0.5  ]
   Cartesian: [  0  0  25.1364  ]
Constructing Wigner-Seitz cell: 6 faces (6 quadrilaterals, 0 hexagons)
Range-separation parameter for embedded mesh potentials due to point charges: 0.49694 bohrs.

---------- Setting up ewald sum ----------
Optimum gaussian width for ewald sums = 7.745096 bohr.
Real space sum over 845 unit cells with max indices [  6  6  2  ]
Reciprocal space sum over 5203 terms with max indices [  5  5  21  ]

---------- Allocating electronic variables ----------
Initializing wave functions:  reading from 'X.wfns'
----- createFluidSolver() ----- (Fluid-side solver setup)
   Initializing fluid molecule 'EC'
     Net charge: 0   dipole magnitude: 0
     Initializing spherical shell mfKernel with radius 0 Bohr
     deltaS corrections:

Correction to mu due to finite nuclear width = -0.001691
   Cavity determined by nc: 0.0018 and sigma: 0.6
   Effective cavity tension: 1.55e-05 Eh/bohr^2 to account for cavitation and dispersion.
Reading fluid state from 'X.fluidState'


---- Citations for features of the code used in this run ----

   Software package:
[...]
	FillingsUpdate:  mu: -0.056880570  nElectrons: 108.000000
	SubspaceRotationAdjust: set factor to 3.88
ElecMinimize: Iter:   2  F: -512.073865536716994  |grad|_K:  9.725e-06  alpha:  3.716e-01  linmin: -3.399e-05  t[s]:   3459.79
	Linear fluid (dielectric constant: 90.5) occupying 0.856228 of unit cell:	Completed after 14 iterations at t[s]:   3482.59
	Linear fluid (dielectric constant: 90.5) occupying 0.856222 of unit cell:	Completed after 3 iterations at t[s]:   3499.04
	FillingsUpdate:  mu: -0.056813782  nElectrons: 108.000000
	SubspaceRotationAdjust: set factor to 3.9
ElecMinimize: Iter:   3  F: -512.078095844924519  |grad|_K:  4.351e-06  alpha:  3.465e-01  linmin: -8.450e-06  t[s]:   3511.23
	Linear fluid (dielectric constant: 90.5) occupying 0.856285 of unit cell:
*************** JDFTx 1.7.0 (git hash 29f622bc) ***************

Start date and time: Mon Jan 15 10:48:21 2024
Executable jdftx with command-line: -c 2 -i X.in -o X.out
Running on hosts (process indices):  ac0740 (0,3)  ac0742 (1,4)  ac0743 (2,5-9)
Divided in process groups (process indices):  0 (0)  1 (1)  2 (2)  3 (3)  4 (4)  5 (5)  6 (6)  7 (7)  8 (8)  9 (9)
Resource initialization completed at t[s]:      0.02
Run totals: 10 processes, 20 threads, 0 GPUs


Input parsed successfully to the following command list (including defaults):

basis kpoint-dependent
cache-projectors no
coords-type Lattice
core-overlap-check vector
coulomb-interaction Slab 001
coulomb-truncation-embed 0 0 0.5
davidson-band-ratio 1.1
density-of-states Etol 1.000000e-06 Esigma 0.000000e+00 \
		Complete \
	Total \
		Occupied \
	Total
dump End State IonicPositions Lattice ElecDensity CoreDensity EigStats DOS
dump Electronic State Forces
dump Ionic State IonicPositions Forces Lattice DOS
dump-interval Electronic 8
dump-interval Ionic 4
dump-name X.$var
elec-cutoff 50
elec-eigen-algo Davidson
elec-ex-corr gga-PBE
elec-smearing Cold 0.0095
electronic-minimize  \
	dirUpdateScheme      FletcherReeves \
	linminMethod         DirUpdateRecommended \
	nIterations          2000 \
	history              15 \
	knormThreshold       0 \
	energyDiffThreshold  1e-07 \
	nEnergyDiff          2 \
	alphaTstart          1 \
	alphaTmin            1e-10 \
	updateTestStepSize   yes \
	alphaTreduceFactor   0.1 \
	alphaTincreaseFactor 3 \
	nAlphaAdjustMax      3 \
	wolfeEnergy          0.0001 \
	wolfeGradient        0.9 \
	fdTest               no
exchange-regularization WignerSeitzTruncated
fluid LinearPCM 298.000000 1.013250
fluid-ex-corr (null) lda-PZ
fluid-gummel-loop 10 1.000000e-05
fluid-minimize  \
	dirUpdateScheme      PolakRibiere \
	linminMethod         DirUpdateRecommended \
	nIterations          400 \
	history              15 \
	knormThreshold       1e-11 \
	energyDiffThreshold  0 \
	nEnergyDiff          2 \
	alphaTstart          1 \
	alphaTmin            1e-10 \
	updateTestStepSize   yes \
	alphaTreduceFactor   0.1 \
	alphaTincreaseFactor 3 \
	nAlphaAdjustMax      6 \
	wolfeEnergy          0.0001 \
	wolfeGradient        0.9 \
	fdTest               no
fluid-solvent EC 15.0047 ScalarEOS \
	epsBulk 90.5 \
	pMol 2.88 \
	epsInf 2 \
	Pvap 7.53424e-14 \
	sigmaBulk 3.51e-05 \
	Rvdw 0 \
	Res 0 \
	tauNuc 343133
forces-output-coords Positions
initial-state X.$var
ion Na  -0.000000000000000  -0.000000000000000   0.419719991697560 1
ion Na   0.250000000000000   0.250000000000000   0.500000000000000 1
ion Na  -0.000000000000000   0.000000000000000   0.580280008302440 1
ion Na  -0.000000000000000   0.500000000000000   0.419719991697560 1
ion Na   0.250000000000000   0.750000000000000   0.500000000000000 1
ion Na   0.000000000000000   0.500000000000000   0.580280008302440 1
ion Na   0.500000000000000  -0.000000000000000   0.419719991697560 1
ion Na   0.750000000000000   0.250000000000000   0.500000000000000 1
ion Na   0.500000000000000   0.000000000000000   0.580280008302440 1
ion Na   0.500000000000000   0.500000000000000   0.419719991697560 1
ion Na   0.750000000000000   0.750000000000000   0.500000000000000 1
ion Na   0.500000000000000   0.500000000000000   0.580280008302440 1
ion-species SG15/$ID_ONCV_PBE.upf
ion-width Ecut
ionic-minimize  \
	dirUpdateScheme      L-BFGS \
	linminMethod         DirUpdateRecommended \
	nIterations          200 \
	history              15 \
	knormThreshold       0.0001 \
	energyDiffThreshold  1e-06 \
	nEnergyDiff          2 \
	alphaTstart          1 \
	alphaTmin            1e-10 \
	updateTestStepSize   yes \
	alphaTreduceFactor   0.1 \
	alphaTincreaseFactor 3 \
	nAlphaAdjustMax      3 \
	wolfeEnergy          0.0001 \
	wolfeGradient        0.9 \
	fdTest               no
kpoint   0.000000000000   0.000000000000   0.000000000000  1.00000000000000
kpoint-folding 7 7 1 
latt-move-scale 1 1 1
latt-scale 1 1 1 
lattice  \
	  15.877738227600000   -0.000000000000000   -0.000000000000000  \
	   0.000000000000000   15.877738227600000   -0.000000000000000  \
	   0.000000000000000    0.000000000000000   50.272865136000000 
lattice-minimize  \
	dirUpdateScheme      L-BFGS \
	linminMethod         DirUpdateRecommended \
	nIterations          0 \
	history              15 \
	knormThreshold       0 \
	energyDiffThreshold  1e-06 \
	nEnergyDiff          2 \
	alphaTstart          1 \
	alphaTmin            1e-10 \
	updateTestStepSize   yes \
	alphaTreduceFactor   0.1 \
	alphaTincreaseFactor 3 \
	nAlphaAdjustMax      3 \
	wolfeEnergy          0.0001 \
	wolfeGradient        0.9 \
	fdTest               no
lcao-params -1 1e-06 0.0095
pcm-variant GLSSA13
spintype no-spin
subspace-rotation-factor 1 yes
symmetries automatic
symmetry-threshold 0.0001



---------- Setting up symmetries ----------

Found 16 point-group symmetries of the bravais lattice
Found 64 space-group symmetries with basis
Applied RMS atom displacement 0 bohrs to make symmetries exact.

---------- Initializing the Grid ----------
R = 
[      15.8777            0            0  ]
[            0      15.8777            0  ]
[            0            0      50.2729  ]
unit cell volume = 12673.9
G =
[   0.395723          0          0  ]
[         -0   0.395723          0  ]
[          0         -0   0.124982  ]
Minimum fftbox size, Smin = [  104  104  324  ]
Chosen fftbox size, S = [  108  108  324  ]

---------- Exchange Correlation functional ----------
Initalized PBE GGA exchange.
Initalized PBE GGA correlation.

---------- Setting up pseudopotentials ----------
Width of ionic core gaussian charges (only for fluid interactions / plotting) set to 0.251327

Reading pseudopotential file '/net/people/plgrid/plgigoro/jdftx1.7.0_oblas_fftw_libxc_git_ares/build/pseudopotentials/SG15/Na_ONCV_PBE.upf':
  'Na' pseudopotential, 'PBE' functional
  Generated using ONCVPSP code by D. R. Hamann
  Author: Martin Schlipf and Francois Gygi  Date: 150915.
  9 valence electrons, 3 orbitals, 4 projectors, 1992 radial grid points, with lMax = 1
  Transforming local potential to a uniform radial grid of dG=0.02 with 1824 points.
  Transforming nonlocal projectors to a uniform radial grid of dG=0.02 with 680 points.
    2S    l: 0   occupation:  2.0   eigenvalue: -2.085640
    2P    l: 1   occupation:  6.0   eigenvalue: -1.053708
    3S    l: 0   occupation:  1.0   eigenvalue: -0.100838
  Transforming atomic orbitals to a uniform radial grid of dG=0.02 with 680 points.
  Core radius for overlap checks: 2.01 bohrs.
  Reading pulay file /net/people/plgrid/plgigoro/jdftx1.7.0_oblas_fftw_libxc_git_ares/build/pseudopotentials/SG15/Na_ONCV_PBE.pulay ... using dE_dnG = -4.628430e-06 computed for Ecut = 50.

Initialized 1 species with 12 total atoms.

Folded 1 k-points by 7x7x1 to 49 k-points.

---------- Setting up k-points, bands, fillings ----------
Reduced to 10 k-points under symmetry. 
Computing the number of bands and number of electrons
Reading initial fillings from file X.fillings.
nElectrons: 108.000000   nBands: 60   nStates: 10

----- Setting up reduced wavefunction bases (one per k-point) -----
average nbasis = 214017.571 , ideal nbasis = 214022.738

----- Initializing Supercell corresponding to k-point mesh -----
Lattice vector linear combinations in supercell:
[   7   0   0  ]
[   0   7   0  ]
[   0   0   1  ]
Supercell lattice vectors:
[  111.144  0  0  ]
[  0  111.144  0  ]
[  0  0  50.2729  ]

---------- Setting up coulomb interaction ----------
Fluid mode embedding: using embedded box, but periodic Coulomb kernel.
(Fluid response is responsible for (approximate) separation between periodic images.)
Setting up double-sized grid for truncated Coulomb potentials:
R = 
[      15.8777            0            0  ]
[            0      15.8777            0  ]
[            0            0      100.546  ]
unit cell volume = 25347.8
G =
[   0.395723          0          0  ]
[         -0   0.395723          0  ]
[          0         -0  0.0624908  ]
Chosen fftbox size, S = [  108  108  648  ]
Integer grid location selected as the embedding center:
   Grid: [  0  0  162  ]
   Lattice: [  0  0  0.5  ]
   Cartesian: [  0  0  25.1364  ]
Constructing Wigner-Seitz cell: 6 faces (6 quadrilaterals, 0 hexagons)
Range-separation parameter for embedded mesh potentials due to point charges: 0.49694 bohrs.

---------- Setting up ewald sum ----------
Optimum gaussian width for ewald sums = 7.745096 bohr.
Real space sum over 845 unit cells with max indices [  6  6  2  ]
Reciprocal space sum over 5203 terms with max indices [  5  5  21  ]

---------- Allocating electronic variables ----------
Initializing wave functions:  reading from 'X.wfns'
----- createFluidSolver() ----- (Fluid-side solver setup)
   Initializing fluid molecule 'EC'
     Net charge: 0   dipole magnitude: 0
     Initializing spherical shell mfKernel with radius 0 Bohr
     deltaS corrections:

Correction to mu due to finite nuclear width = -0.001691
   Cavity determined by nc: 0.0018 and sigma: 0.6
   Effective cavity tension: 1.55e-05 Eh/bohr^2 to account for cavitation and dispersion.
Reading fluid state from 'X.fluidState'


---- Citations for features of the code used in this run ----

   Software package:
      R. Sundararaman, K. Letchworth-Weaver, K.A. Schwarz, D. Gunceler, Y. Ozhabes and T.A. Arias, 'JDFTx: software for joint density-functional theory', SoftwareX 6, 278 (2017)

   gga-PBE exchange-correlation functional:
      J.P. Perdew, K. Burke and M. Ernzerhof, Phys. Rev. Lett. 77, 3865 (1996)

   Pseudopotentials:
      M Schlipf and F Gygi, Comput. Phys. Commun. 196, 36 (2015)

   Truncated Coulomb potentials:
      R. Sundararaman and T.A. Arias, Phys. Rev. B 87, 165122 (2013)

   Linear/nonlinear dielectric/ionic fluid model with effective cavity tension:
      D. Gunceler, K. Letchworth-Weaver, R. Sundararaman, K.A. Schwarz and T.A. Arias, Modelling Simul. Mater. Sci. Eng. 21, 074005 (2013)

   Total energy minimization with Auxiliary Hamiltonian:
      C. Freysoldt, S. Boeck, and J. Neugebauer, Phys. Rev. B 79, 241103(R) (2009)

   Linear-tetrahedron sampling for density of states:
      G. Lehmann and M. Taut, Phys. status solidi (b) 54, 469 (1972)

This list may not be complete. Please suggest additional citations or
report any other bugs at https://github.com/shankar1729/jdftx/issues

Initialization completed successfully at t[s]:     15.21


-------- Electronic minimization -----------
	Linear fluid (dielectric constant: 90.5) occupying 0.856347 of unit cell:	Completed after 0 iterations at t[s]:     31.16
	FillingsUpdate:  mu: -0.056707716  nElectrons: 108.000000
ElecMinimize: Iter:   0  F: -512.078583408935060  |grad|_K:  1.435e-07  alpha:  1.000e+00
	Linear fluid (dielectric constant: 90.5) occupying 0.856339 of unit cell:	Completed after 2 iterations at t[s]:     56.55
	Linear fluid (dielectric constant: 90.5) occupying 0.856346 of unit cell:	Completed after 0 iterations at t[s]:     69.08
ElecMinimize: 	Step increased F by 1.823271e-07, reducing alpha to 1.362400e-02.
	Linear fluid (dielectric constant: 90.5) occupying 0.856347 of unit cell:	Completed after 0 iterations at t[s]:     88.55
	FillingsUpdate:  mu: -0.056701132  nElectrons: 108.000000
	SubspaceRotationAdjust: set factor to 1
ElecMinimize: Iter:   1  F: -512.078583479703866  |grad|_K:  1.157e-07  alpha:  1.362e-02  linmin: -4.299e-02  t[s]:    100.08
	Linear fluid (dielectric constant: 90.5) occupying 0.856347 of unit cell:	Completed after 0 iterations at t[s]:    108.28
	Linear fluid (dielectric constant: 90.5) occupying 0.856347 of unit cell:	Completed after 0 iterations at t[s]:    119.24
	FillingsUpdate:  mu: -0.056701136  nElectrons: 108.000000
	SubspaceRotationAdjust: set factor to 1.01
ElecMinimize: Iter:   2  F: -512.078583515661990  |grad|_K:  8.649e-08  alpha:  1.272e-02  linmin: -3.111e-03  t[s]:    130.58
ElecMinimize: Converged (|Delta F|<1.000000e-07 for 2 iters).
Setting wave functions to eigenvectors of Hamiltonian

# Ionic positions in lattice coordinates:
ion Na   0.000000000000000   0.000000000000000   0.419719991697560 1
ion Na   0.250000000000000   0.250000000000000   0.500000000000000 1
ion Na   0.000000000000000   0.000000000000000   0.580280008302440 1
ion Na   0.000000000000000   0.500000000000000   0.419719991697560 1
ion Na   0.250000000000000   0.750000000000000   0.500000000000000 1
ion Na   0.000000000000000   0.500000000000000   0.580280008302440 1
ion Na   0.500000000000000   0.000000000000000   0.419719991697560 1
ion Na   0.750000000000000   0.250000000000000   0.500000000000000 1
ion Na   0.500000000000000   0.000000000000000   0.580280008302440 1
ion Na   0.500000000000000   0.500000000000000   0.419719991697560 1
ion Na   0.750000000000000   0.750000000000000   0.500000000000000 1
ion Na   0.500000000000000   0.500000000000000   0.580280008302440 1

# Forces in Lattice coordinates:
force Na  -0.000000000000000   0.000000000000000  -0.113741193153189 1
force Na   0.000000000000000   0.000000000000000   0.000000000000000 1
force Na  -0.000000000000000   0.000000000000000   0.113741193153075 1
force Na   0.000000000000000  -0.000000000000000  -0.113741193153075 1
force Na  -0.000000000000000  -0.000000000000000   0.000000000000000 1
force Na   0.000000000000000   0.000000000000000   0.113741193153188 1
force Na  -0.000000000000000  -0.000000000000000  -0.113741193153188 1
force Na   0.000000000000000  -0.000000000000000  -0.000000000000000 1
force Na  -0.000000000000000   0.000000000000000   0.113741193153075 1
force Na   0.000000000000000   0.000000000000000  -0.113741193153188 1
force Na  -0.000000000000000   0.000000000000000  -0.000000000000000 1
force Na   0.000000000000000  -0.000000000000000   0.113741193153189 1

# Energy components:
   A_diel =       -6.2586745773318651
   Eewald =     1696.4139514217947635
       EH =     1978.2612412769365164
     Eloc =    -4210.4049808074742032
      Enl =     -156.0653580530807290
   Epulay =       -0.0000000226432096
      Exc =      -74.7203350796194172
       KE =      260.6986678183747017
  MuShift =       -0.0000000000001131
-------------------------------------
     Etot =     -512.0754880230435901
       TS =        0.0030954926183578
-------------------------------------
        F =     -512.0785835156619896

IonicMinimize: Iter:   0  F: -512.078583515661990  |grad|_K:  1.067e-03  t[s]:    134.21

#--- Lowdin population analysis ---
# oxidation-state Na +0.498 +0.712 +0.498 +0.498 +0.712 +0.498 +0.498 +0.712 +0.498 +0.498 +0.712 +0.498


-------- Electronic minimization -----------
	Linear fluid (dielectric constant: 90.5) occupying 0.856342 of unit cell:	Completed after 11 iterations at t[s]:    154.40
	FillingsUpdate:  mu: -0.056705630  nElectrons: 108.000000
ElecMinimize: Iter:   0  F: -512.078622609309491  |grad|_K:  1.771e-07  alpha:  1.000e+00
	Linear fluid (dielectric constant: 90.5) occupying 0.856336 of unit cell:	Completed after 3 iterations at t[s]:    179.78
	Linear fluid (dielectric constant: 90.5) occupying 0.856341 of unit cell:	Completed after 3 iterations at t[s]:    195.13
	FillingsUpdate:  mu: -0.056707335  nElectrons: 108.000000
	SubspaceRotationAdjust: set factor to 1.01
ElecMinimize: Iter:   1  F: -512.078623169489560  |grad|_K:  2.215e-07  alpha:  1.929e-01  linmin:  4.064e-03  t[s]:    207.33
	Linear fluid (dielectric constant: 90.5) occupying 0.856338 of unit cell:	Completed after 0 iterations at t[s]:    216.63
	Linear fluid (dielectric constant: 90.5) occupying 0.856340 of unit cell:	Completed after 0 iterations at t[s]:    227.68
	FillingsUpdate:  mu: -0.056705330  nElectrons: 108.000000
	SubspaceRotationAdjust: set factor to 1.02
ElecMinimize: Iter:   2  F: -512.078623419927112  |grad|_K:  1.217e-07  alpha:  5.749e-02  linmin:  2.502e-03  t[s]:    239.42
	Linear fluid (dielectric constant: 90.5) occupying 0.856340 of unit cell:	Completed after 0 iterations at t[s]:    247.63
	Linear fluid (dielectric constant: 90.5) occupying 0.856340 of unit cell:	Completed after 0 iterations at t[s]:    258.47
	FillingsUpdate:  mu: -0.056705411  nElectrons: 108.000000
	SubspaceRotationAdjust: set factor to 1.02
ElecMinimize: Iter:   3  F: -512.078623443610695  |grad|_K:  1.033e-07  alpha:  3.028e-02  linmin:  5.314e-04  t[s]:    270.02
	Linear fluid (dielectric constant: 90.5) occupying 0.856340 of unit cell:	Completed after 0 iterations at t[s]:    278.33
ElecMinimize: 	Predicted alpha/alphaT>3.000000, increasing alphaT to 9.085393e-02.
	Linear fluid (dielectric constant: 90.5) occupying 0.856339 of unit cell:	Completed after 0 iterations at t[s]:    289.44
	Linear fluid (dielectric constant: 90.5) occupying 0.856339 of unit cell:	Completed after 0 iterations at t[s]:    301.00
	FillingsUpdate:  mu: -0.056705677  nElectrons: 108.000000
	SubspaceRotationAdjust: set factor to 1.03
ElecMinimize: Iter:   4  F: -512.078623579720784  |grad|_K:  1.317e-07  alpha:  1.042e-01  linmin:  4.175e-05  t[s]:    312.69
	Linear fluid (dielectric constant: 90.5) occupying 0.856336 of unit cell:	Completed after 0 iterations at t[s]:    321.79
	Linear fluid (dielectric constant: 90.5) occupying 0.856337 of unit cell:	Completed after 0 iterations at t[s]:    332.99
	FillingsUpdate:  mu: -0.056706012  nElectrons: 108.000000
	SubspaceRotationAdjust: set factor to 1.03
ElecMinimize: Iter:   5  F: -512.078623729659739  |grad|_K:  1.290e-07  alpha:  7.351e-02  linmin: -2.652e-04  t[s]:    344.57
	Linear fluid (dielectric constant: 90.5) occupying 0.856335 of unit cell:	Completed after 0 iterations at t[s]:    353.23
	Linear fluid (dielectric constant: 90.5) occupying 0.856336 of unit cell:	Completed after 0 iterations at t[s]:    364.20
	FillingsUpdate:  mu: -0.056706124  nElectrons: 108.000000
	SubspaceRotationAdjust: set factor to 1.05
ElecMinimize: Iter:   6  F: -512.078623799989600  |grad|_K:  9.498e-08  alpha:  3.565e-02  linmin: -8.962e-05  t[s]:    375.81
	Linear fluid (dielectric constant: 90.5) occupying 0.856335 of unit cell:	Completed after 0 iterations at t[s]:    383.98
	Linear fluid (dielectric constant: 90.5) occupying 0.856335 of unit cell:	Completed after 0 iterations at t[s]:    394.84
	FillingsUpdate:  mu: -0.056706197  nElectrons: 108.000000

Dumping 'X.fillings' ... done
Dumping 'X.wfns' ... done
Dumping 'X.fluidState' ... done
Dumping 'X.ionpos' ... done
Dumping 'X.force' ... done
Dumping 'X.eigenvals' ... done
	SubspaceRotationAdjust: set factor to 1.06
ElecMinimize: Iter:   7  F: -512.078623849567180  |grad|_K:  1.261e-07  alpha:  4.063e-02  linmin: -3.112e-04  t[s]:    407.37
ElecMinimize: Converged (|Delta F|<1.000000e-07 for 2 iters).
Setting wave functions to eigenvectors of Hamiltonian
IonicMinimize: 	Wolfe criterion not satisfied: alpha: 1  (E-E0)/|gdotd0|: -0.984945  gdotd/gdotd0: 1.13724 (taking cubic step)

-------- Electronic minimization -----------
	Linear fluid (dielectric constant: 90.5) occupying 0.856325 of unit cell:	Completed after 11 iterations at t[s]:    431.15
	FillingsUpdate:  mu: -0.056710510  nElectrons: 108.000000
ElecMinimize: Iter:   0  F: -512.078699815443770  |grad|_K:  3.473e-07  alpha:  1.000e+00
	Linear fluid (dielectric constant: 90.5) occupying 0.856322 of unit cell: