
*************** JDFTx 1.7.0  ***************

Start date and time: Thu Nov  9 00:23:48 2023
Executable jdftx with command-line: -m -i X.in -o X.out
Running on hosts (process indices):  ac0119 (0-20)
Divided in process groups (process indices):  0 (0)  1 (1)  2 (2)  3 (3)  4 (4)  5 (5)  6 (6)  7 (7)  8 (8)  9 (9)  10 (10)  11 (11)  12 (12)  13 (13)  14 (14)  15 (15)  16 (16)  17 (17)  18 (18)  19 (19)  20 (20)
Resource initialization completed at t[s]:      0.01
Run totals: 21 processes, 21 threads, 0 GPUs


Input parsed successfully to the following command list (including defaults):

basis kpoint-dependent
cache-projectors no
coords-type Lattice
core-overlap-check vector
coulomb-interaction Slab 001
coulomb-truncation-embed 0 0 0.5
davidson-band-ratio 1.1
density-of-states Etol 1.000000e-06 Esigma 0.000000e+00 \
		Complete \
	Total \
		Occupied \
	Total
dump End State IonicPositions Lattice ElecDensity CoreDensity EigStats DOS
dump Electronic State Forces
dump Ionic State IonicPositions Forces Lattice DOS
dump-interval Electronic 8
dump-interval Ionic 4
dump-name X.$var
elec-cutoff 10
elec-eigen-algo Davidson
elec-ex-corr gga-PBE
elec-smearing Fermi 0.0095
electronic-minimize  \
	dirUpdateScheme      FletcherReeves \
	linminMethod         DirUpdateRecommended \
	nIterations          2000 \
	history              15 \
	knormThreshold       0 \
	energyDiffThreshold  1e-06 \
	nEnergyDiff          2 \
	alphaTstart          1 \
	alphaTmin            1e-10 \
	updateTestStepSize   yes \
	alphaTreduceFactor   0.1 \
	alphaTincreaseFactor 3 \
	nAlphaAdjustMax      3 \
	wolfeEnergy          0.0001 \
	wolfeGradient        0.9 \
	fdTest               no
exchange-regularization WignerSeitzTruncated
fluid None
fluid-ex-corr (null) lda-PZ
fluid-gummel-loop 10 1.000000e-05
fluid-minimize  \
	dirUpdateScheme      PolakRibiere \
	linminMethod         DirUpdateRecommended \
	nIterations          100 \
	history              15 \
	knormThreshold       0 \
	energyDiffThreshold  0 \
	nEnergyDiff          2 \
	alphaTstart          1 \
	alphaTmin            1e-10 \
	updateTestStepSize   yes \
	alphaTreduceFactor   0.1 \
	alphaTincreaseFactor 3 \
	nAlphaAdjustMax      3 \
	wolfeEnergy          0.0001 \
	wolfeGradient        0.9 \
	fdTest               no
fluid-solvent H2O 55.338 ScalarEOS \
	epsBulk 78.4 \
	pMol 0.92466 \
	epsInf 1.77 \
	Pvap 1.06736e-10 \
	sigmaBulk 4.62e-05 \
	Rvdw 2.61727 \
	Res 1.42 \
	tauNuc 343133 \
	poleEl 15 7 1
forces-output-coords Positions
initial-state X.$var
ion Na   0.000000000000000   0.000000000000000   0.266670000000000 1
ion Na   0.500000000000000   0.500000000000000   0.313340000000000 1
ion Na   0.000000000000000   0.000000000000000   0.360000000000000 1
ion Na   0.500000000000000   0.500000000000000   0.406670000000000 1
ion Na   0.000000000000000   0.000000000000000   0.453330000000000 1
ion Na   0.500000000000000   0.500000000000000   0.500000000000000 1
ion Na   0.000000000000000   0.000000000000000   0.546670000000000 1
ion Na   0.500000000000000   0.500000000000000   0.593330000000000 1
ion Na   0.000000000000000   0.000000000000000   0.640000000000000 1
ion Na   0.500000000000000   0.500000000000000   0.686660000000000 1
ion Na   0.000000000000000   0.000000000000000   0.733330000000000 1
ion-species SG15/$ID_ONCV_PBE.upf
ion-width 0
ionic-minimize  \
	dirUpdateScheme      L-BFGS \
	linminMethod         DirUpdateRecommended \
	nIterations          0 \
	history              15 \
	knormThreshold       0.0001 \
	energyDiffThreshold  1e-06 \
	nEnergyDiff          2 \
	alphaTstart          1 \
	alphaTmin            1e-10 \
	updateTestStepSize   yes \
	alphaTreduceFactor   0.1 \
	alphaTincreaseFactor 3 \
	nAlphaAdjustMax      3 \
	wolfeEnergy          0.0001 \
	wolfeGradient        0.9 \
	fdTest               no
kpoint   0.000000000000   0.000000000000   0.000000000000  1.00000000000000
kpoint-folding 11 11 1 
latt-move-scale 1 1 1
latt-scale 1.88973 1.88973 1.88973 
lattice  \
	   4.199920000000001   -0.000000000000000   -0.000000000000000  \
	   0.000000000000000    4.199920000000001   -0.000000000000000  \
	   0.000000000000000    0.000000000000000   44.999599999999994 
lattice-minimize  \
	dirUpdateScheme      L-BFGS \
	linminMethod         DirUpdateRecommended \
	nIterations          0 \
	history              15 \
	knormThreshold       0 \
	energyDiffThreshold  1e-06 \
	nEnergyDiff          2 \
	alphaTstart          1 \
	alphaTmin            1e-10 \
	updateTestStepSize   yes \
	alphaTreduceFactor   0.1 \
	alphaTincreaseFactor 3 \
	nAlphaAdjustMax      3 \
	wolfeEnergy          0.0001 \
	wolfeGradient        0.9 \
	fdTest               no
lcao-params -1 1e-06 0.0095
pcm-variant GLSSA13
spintype no-spin
subspace-rotation-factor 1 yes
symmetries automatic
symmetry-threshold 0.0001



---------- Setting up symmetries ----------

Found 16 point-group symmetries of the bravais lattice
Found 16 space-group symmetries with basis
Applied RMS atom displacement 0 bohrs to make symmetries exact.

---------- Initializing the Grid ----------
R = 
[      7.93671            0            0  ]
[            0      7.93671            0  ]
[            0            0      85.0371  ]
unit cell volume = 5356.61
G =
[   0.791661          0          0  ]
[         -0   0.791661          0  ]
[          0         -0  0.0738876  ]
Minimum fftbox size, Smin = [  24  24  244  ]
Chosen fftbox size, S = [  24  24  250  ]

---------- Exchange Correlation functional ----------
Initalized PBE GGA exchange.
Initalized PBE GGA correlation.

---------- Setting up pseudopotentials ----------
Width of ionic core gaussian charges (only for fluid interactions / plotting) set to 0

Reading pseudopotential file '/net/software/testing/software/jdftx/1.7.0-foss-2021b-mkl/share/jdftx/pseudopotentials/SG15/Na_ONCV_PBE.upf':
  'Na' pseudopotential, 'PBE' functional
  Generated using ONCVPSP code by D. R. Hamann
  Author: Martin Schlipf and Francois Gygi  Date: 150915.
  9 valence electrons, 3 orbitals, 4 projectors, 1992 radial grid points, with lMax = 1
  Transforming local potential to a uniform radial grid of dG=0.02 with 821 points.
  Transforming nonlocal projectors to a uniform radial grid of dG=0.02 with 307 points.
    2S    l: 0   occupation:  2.0   eigenvalue: -2.085640
    2P    l: 1   occupation:  6.0   eigenvalue: -1.053708
    3S    l: 0   occupation:  1.0   eigenvalue: -0.100838
  Transforming atomic orbitals to a uniform radial grid of dG=0.02 with 307 points.
  Core radius for overlap checks: 2.01 bohrs.
  Reading pulay file /net/software/testing/software/jdftx/1.7.0-foss-2021b-mkl/share/jdftx/pseudopotentials/SG15/Na_ONCV_PBE.pulay ... using dE_dnG = -1.681960e+00 computed for Ecut = 10.

Initialized 1 species with 11 total atoms.

Folded 1 k-points by 11x11x1 to 121 k-points.

---------- Setting up k-points, bands, fillings ----------
Reduced to 21 k-points under symmetry. 
Computing the number of bands and number of electrons
Calculating initial fillings.
nElectrons:  99.000000   nBands: 55   nStates: 21

----- Setting up reduced wavefunction bases (one per k-point) -----
average nbasis = 8090.289 , ideal nbasis = 8090.660

----- Initializing Supercell corresponding to k-point mesh -----
Lattice vector linear combinations in supercell:
[  11   0   0  ]
[   0  11   0  ]
[   0   0   1  ]
Supercell lattice vectors:
[  87.3039  0  0  ]
[  0  87.3039  0  ]
[  0  0  85.0371  ]

---------- Setting up coulomb interaction ----------
Setting up double-sized grid for truncated Coulomb potentials:
R = 
[      7.93671            0            0  ]
[            0      7.93671            0  ]
[            0            0      170.074  ]
unit cell volume = 10713.2
G =
[   0.791661          0          0  ]
[         -0   0.791661          0  ]
[          0         -0  0.0369438  ]
Chosen fftbox size, S = [  24  24  500  ]
Integer grid location selected as the embedding center:
   Grid: [  0  0  125  ]
   Lattice: [  0  0  0.5  ]
   Cartesian: [  0  0  42.5185  ]
Constructing Wigner-Seitz cell: 6 faces (6 quadrilaterals, 0 hexagons)
Range-separation parameter for embedded mesh potentials due to point charges: 0.735774 bohrs.
Initialized slab truncation along lattice direction 001

---------- Setting up 2D ewald sum ----------
Optimum gaussian width for ewald sums = 4.734710 bohr.
Real space sums over 225 unit cells with max indices [  7  7  0  ]
Reciprocal space sums over 81 terms with max indices [  4  4  0  ]

---------- Allocating electronic variables ----------
Initializing wave functions:  linear combination of atomic orbitals
Na pseudo-atom occupations:   s ( 2 1 )  p ( 6 )
	FillingsUpdate:  mu: +0.097817088  nElectrons: 99.000000
LCAOMinimize: Iter:   0  F: -458.3737049283886336  |grad|_K:  5.388e-03  alpha:  1.000e+00
LCAOMinimize: 	Step increased F by 1.649337e-02, reducing alpha to 9.302530e-03.
	FillingsUpdate:  mu: +0.046705503  nElectrons: 99.000000
LCAOMinimize: Iter:   1  F: -458.3896487155834620  |grad|_K:  4.256e-03  alpha:  9.303e-03  linmin: -1.981e-01  cgtest:  9.956e-01  t[s]:      1.73
LCAOMinimize: Encountered beta<0, resetting CG.
LCAOMinimize: 	Predicted alpha/alphaT>3.000000, increasing alphaT to 2.790759e-02.
	FillingsUpdate:  mu: -0.134149364  nElectrons: 99.000000
LCAOMinimize: Iter:   2  F: -458.4159136086965418  |grad|_K:  6.870e-04  alpha:  4.446e-02  linmin:  3.139e-02  cgtest: -1.549e-01  t[s]:      2.46
LCAOMinimize: 	Predicted alpha/alphaT>3.000000, increasing alphaT to 1.333860e-01.
	FillingsUpdate:  mu: -0.162558198  nElectrons: 99.000000
LCAOMinimize: Iter:   3  F: -458.4198047422345326  |grad|_K:  4.938e-04  alpha:  2.634e-01  linmin:  8.606e-04  cgtest:  1.782e-01  t[s]:      3.18
	FillingsUpdate:  mu: -0.131172663  nElectrons: 99.000000
LCAOMinimize: Iter:   4  F: -458.4208712205985989  |grad|_K:  6.444e-04  alpha:  1.342e-01  linmin:  2.700e-06  cgtest:  1.084e-02  t[s]:      3.71
	FillingsUpdate:  mu: -0.138949066  nElectrons: 99.000000
LCAOMinimize: Iter:   5  F: -458.4231220395906234  |grad|_K:  1.571e-04  alpha:  1.642e-01  linmin: -6.065e-04  cgtest: -2.757e-01  t[s]:      4.24
	FillingsUpdate:  mu: -0.143076552  nElectrons: 99.000000
LCAOMinimize: Iter:   6  F: -458.4233574641264113  |grad|_K:  1.979e-05  alpha:  2.840e-01  linmin: -4.244e-04  cgtest: -4.823e-01  t[s]:      4.77
	FillingsUpdate:  mu: -0.143321103  nElectrons: 99.000000
LCAOMinimize: Iter:   7  F: -458.4233612354061620  |grad|_K:  2.117e-05  alpha:  2.889e-01  linmin: -5.373e-06  cgtest: -1.314e-02  t[s]:      5.31
	FillingsUpdate:  mu: -0.142418451  nElectrons: 99.000000
LCAOMinimize: Iter:   8  F: -458.4233619749127229  |grad|_K:  2.213e-06  alpha:  5.010e-02  linmin: -3.653e-05  cgtest:  1.960e-02  t[s]:      5.84
LCAOMinimize: 	Predicted alpha/alphaT>3.000000, increasing alphaT to 1.502910e-01.
	FillingsUpdate:  mu: -0.142494357  nElectrons: 99.000000
LCAOMinimize: Iter:   9  F: -458.4233620442393544  |grad|_K:  1.568e-06  alpha:  4.318e-01  linmin:  2.069e-04  cgtest: -3.445e-03  t[s]:      6.57
LCAOMinimize: Converged (|Delta F|<1.000000e-06 for 2 iters).


---- Citations for features of the code used in this run ----

   Software package:
      R. Sundararaman, K. Letchworth-Weaver, K.A. Schwarz, D. Gunceler, Y. Ozhabes and T.A. Arias, 'JDFTx: software for joint density-functional theory', SoftwareX 6, 278 (2017)

   gga-PBE exchange-correlation functional:
      J.P. Perdew, K. Burke and M. Ernzerhof, Phys. Rev. Lett. 77, 3865 (1996)

   Pseudopotentials:
      M Schlipf and F Gygi, Comput. Phys. Commun. 196, 36 (2015)

   Truncated Coulomb potentials:
      R. Sundararaman and T.A. Arias, Phys. Rev. B 87, 165122 (2013)

   Total energy minimization with Auxiliary Hamiltonian:
      C. Freysoldt, S. Boeck, and J. Neugebauer, Phys. Rev. B 79, 241103(R) (2009)

   Linear-tetrahedron sampling for density of states:
      G. Lehmann and M. Taut, Phys. status solidi (b) 54, 469 (1972)

This list may not be complete. Please suggest additional citations or
report any other bugs at https://github.com/shankar1729/jdftx/issues

Initialization completed successfully at t[s]:      8.30


-------- Electronic minimization -----------
	FillingsUpdate:  mu: -0.142494357  nElectrons: 99.000000
ElecMinimize: Iter:   0  F: -458.423362044253963  |grad|_K:  4.899e-04  alpha:  1.000e+00
	FillingsUpdate:  mu: -0.128517924  nElectrons: 99.000000
	SubspaceRotationAdjust: set factor to 1
ElecMinimize: Iter:   1  F: -459.078481794079494  |grad|_K:  1.248e-04  alpha:  2.920e-01  linmin:  2.942e-03  t[s]:     11.57
	FillingsUpdate:  mu: -0.162514414  nElectrons: 99.000000
	SubspaceRotationAdjust: set factor to 0.958
ElecMinimize: Iter:   2  F: -459.129065702986225  |grad|_K:  6.921e-05  alpha:  3.481e-01  linmin:  1.154e-05  t[s]:     12.70
	FillingsUpdate:  mu: -0.102081919  nElectrons: 99.000000
	SubspaceRotationAdjust: set factor to 0.625
ElecMinimize: Iter:   3  F: -459.133163233872608  |grad|_K:  7.014e-05  alpha:  9.076e-02  linmin: -2.908e-05  t[s]:     13.67
ElecMinimize: 	Predicted alpha/alphaT>3.000000, increasing alphaT to 2.722834e-01.
	FillingsUpdate:  mu: -0.125588643  nElectrons: 99.000000
	SubspaceRotationAdjust: set factor to 0.667
ElecMinimize: Iter:   4  F: -459.146045790616881  |grad|_K:  4.340e-05  alpha:  2.781e-01  linmin:  5.615e-06  t[s]:     14.94
	FillingsUpdate:  mu: -0.167539636  nElectrons: 99.000000
	SubspaceRotationAdjust: set factor to 0.49
ElecMinimize: Iter:   5  F: -459.157025734739193  |grad|_K:  6.739e-05  alpha:  6.249e-01  linmin:  6.745e-05  t[s]:     15.75
	FillingsUpdate:  mu: -0.114001063  nElectrons: 99.000000
	SubspaceRotationAdjust: set factor to 0.323
ElecMinimize: Iter:   6  F: -459.161437147928780  |grad|_K:  4.234e-05  alpha:  9.485e-02  linmin: -5.899e-04  t[s]:     16.53
ElecMinimize: 	Predicted alpha/alphaT>3.000000, increasing alphaT to 2.845453e-01.
	FillingsUpdate:  mu: -0.079401907  nElectrons: 99.000000

Dumping 'X.fillings' ... done
Dumping 'X.wfns' ... done
Dumping 'X.force' ... done
Dumping 'X.eigenvals' ... done
	SubspaceRotationAdjust: set factor to 0.249
ElecMinimize: Iter:   7  F: -459.168078795402209  |grad|_K:  4.789e-05  alpha:  3.592e-01  linmin:  5.687e-05  t[s]:     17.74
	FillingsUpdate:  mu: -0.119091463  nElectrons: 99.000000
	SubspaceRotationAdjust: set factor to 0.217
ElecMinimize: Iter:   8  F: -459.171879936160167  |grad|_K:  3.311e-05  alpha:  1.741e-01  linmin: -2.818e-04  t[s]:     18.52
	FillingsUpdate:  mu: -0.139609363  nElectrons: 99.000000
	SubspaceRotationAdjust: set factor to 0.198
ElecMinimize: Iter:   9  F: -459.174461856883454  |grad|_K:  2.927e-05  alpha:  2.487e-01  linmin:  1.000e-04  t[s]:     19.33
	FillingsUpdate:  mu: -0.116290373  nElectrons: 99.000000
	SubspaceRotationAdjust: set factor to 0.232
ElecMinimize: Iter:  10  F: -459.176272159926043  |grad|_K:  2.277e-05  alpha:  2.263e-01  linmin:  2.874e-05  t[s]:     20.17
	FillingsUpdate:  mu: -0.096151805  nElectrons: 99.000000
	SubspaceRotationAdjust: set factor to 0.213
ElecMinimize: Iter:  11  F: -459.177435660112167  |grad|_K:  2.040e-05  alpha:  2.400e-01  linmin:  2.669e-05  t[s]:     20.95
	FillingsUpdate:  mu: -0.106103840  nElectrons: 99.000000
	SubspaceRotationAdjust: set factor to 0.263
ElecMinimize: Iter:  12  F: -459.178389911437193  |grad|_K:  1.742e-05  alpha:  2.453e-01  linmin:  2.748e-06  t[s]:     21.72
	FillingsUpdate:  mu: -0.123013921  nElectrons: 99.000000
	SubspaceRotationAdjust: set factor to 0.234
ElecMinimize: Iter:  13  F: -459.179148376025125  |grad|_K:  1.742e-05  alpha:  2.669e-01  linmin:  1.290e-05  t[s]:     22.49
	FillingsUpdate:  mu: -0.116174093  nElectrons: 99.000000
	SubspaceRotationAdjust: set factor to 0.281
ElecMinimize: Iter:  14  F: -459.179870517288634  |grad|_K:  1.466e-05  alpha:  2.547e-01  linmin:  3.163e-06  t[s]:     23.27
	FillingsUpdate:  mu: -0.103245157  nElectrons: 99.000000

Dumping 'X.fillings' ... done
Dumping 'X.wfns' ... done
Dumping 'X.force' ... done
Dumping 'X.eigenvals' ... done
	SubspaceRotationAdjust: set factor to 0.25
ElecMinimize: Iter:  15  F: -459.180414765730518  |grad|_K:  1.465e-05  alpha:  2.704e-01  linmin:  8.318e-06  t[s]:     24.24
	FillingsUpdate:  mu: -0.111274105  nElectrons: 99.000000
	SubspaceRotationAdjust: set factor to 0.289
ElecMinimize: Iter:  16  F: -459.180899893328558  |grad|_K:  1.118e-05  alpha:  2.417e-01  linmin:  2.364e-06  t[s]:     25.01
	FillingsUpdate:  mu: -0.120447618  nElectrons: 99.000000
	SubspaceRotationAdjust: set factor to 0.264
ElecMinimize: Iter:  17  F: -459.181207492613567  |grad|_K:  1.052e-05  alpha:  2.630e-01  linmin:  8.996e-06  t[s]:     25.80
	FillingsUpdate:  mu: -0.113363923  nElectrons: 99.000000
	SubspaceRotationAdjust: set factor to 0.275
ElecMinimize: Iter:  18  F: -459.181433292802978  |grad|_K:  7.597e-06  alpha:  2.179e-01  linmin:  4.033e-06  t[s]:     26.58
	FillingsUpdate:  mu: -0.107471175  nElectrons: 99.000000
	SubspaceRotationAdjust: set factor to 0.276
ElecMinimize: Iter:  19  F: -459.181597462295770  |grad|_K:  7.977e-06  alpha:  3.039e-01  linmin:  1.359e-05  t[s]:     27.36
	FillingsUpdate:  mu: -0.114001481  nElectrons: 99.000000
	SubspaceRotationAdjust: set factor to 0.264
ElecMinimize: Iter:  20  F: -459.181739480127646  |grad|_K:  6.478e-06  alpha:  2.383e-01  linmin:  4.458e-06  t[s]:     28.15
	FillingsUpdate:  mu: -0.118706956  nElectrons: 99.000000
	SubspaceRotationAdjust: set factor to 0.273
ElecMinimize: Iter:  21  F: -459.181867999876090  |grad|_K:  6.899e-06  alpha:  3.271e-01  linmin:  3.233e-05  t[s]:     28.93
	FillingsUpdate:  mu: -0.112873932  nElectrons: 99.000000
	SubspaceRotationAdjust: set factor to 0.247
ElecMinimize: Iter:  22  F: -459.181973151589830  |grad|_K:  5.584e-06  alpha:  2.357e-01  linmin:  5.345e-06  t[s]:     29.71
	FillingsUpdate:  mu: -0.109978686  nElectrons: 99.000000

Dumping 'X.fillings' ... done
Dumping 'X.wfns' ... done
Dumping 'X.force' ... done
Dumping 'X.eigenvals' ... done
	SubspaceRotationAdjust: set factor to 0.275
ElecMinimize: Iter:  23  F: -459.182062572925190  |grad|_K:  5.285e-06  alpha:  3.062e-01  linmin:  1.489e-05  t[s]:     30.67
	FillingsUpdate:  mu: -0.114831029  nElectrons: 99.000000
	SubspaceRotationAdjust: set factor to 0.243
ElecMinimize: Iter:  24  F: -459.182123721544315  |grad|_K:  4.277e-06  alpha:  2.337e-01  linmin:  3.327e-06  t[s]:     31.45
	FillingsUpdate:  mu: -0.116748533  nElectrons: 99.000000
	SubspaceRotationAdjust: set factor to 0.281
ElecMinimize: Iter:  25  F: -459.182178667317430  |grad|_K:  4.062e-06  alpha:  3.206e-01  linmin:  5.410e-06  t[s]:     32.23
	FillingsUpdate:  mu: -0.112941433  nElectrons: 99.000000
	SubspaceRotationAdjust: set factor to 0.237
ElecMinimize: Iter:  26  F: -459.182218133408981  |grad|_K:  3.581e-06  alpha:  2.553e-01  linmin:  9.575e-07  t[s]:     33.01
	FillingsUpdate:  mu: -0.112483359  nElectrons: 99.000000
	SubspaceRotationAdjust: set factor to 0.283
ElecMinimize: Iter:  27  F: -459.182258849446157  |grad|_K:  3.286e-06  alpha:  3.387e-01  linmin:  1.599e-06  t[s]:     33.79
	FillingsUpdate:  mu: -0.115709989  nElectrons: 99.000000
	SubspaceRotationAdjust: set factor to 0.237
ElecMinimize: Iter:  28  F: -459.182288391207010  |grad|_K:  3.116e-06  alpha:  2.919e-01  linmin:  2.235e-06  t[s]:     34.57
	FillingsUpdate:  mu: -0.114615220  nElectrons: 99.000000
	SubspaceRotationAdjust: set factor to 0.257
ElecMinimize: Iter:  29  F: -459.182316559978290  |grad|_K:  2.552e-06  alpha:  3.096e-01  linmin:  1.362e-07  t[s]:     35.35
	FillingsUpdate:  mu: -0.112956690  nElectrons: 99.000000
	SubspaceRotationAdjust: set factor to 0.248
ElecMinimize: Iter:  30  F: -459.182337998407775  |grad|_K:  2.474e-06  alpha:  3.510e-01  linmin: -3.275e-08  t[s]:     36.14
	FillingsUpdate:  mu: -0.114988684  nElectrons: 99.000000

Dumping 'X.fillings' ... done
Dumping 'X.wfns' ... done
Dumping 'X.force' ... done
Dumping 'X.eigenvals' ... done
	SubspaceRotationAdjust: set factor to 0.216
ElecMinimize: Iter:  31  F: -459.182354214097245  |grad|_K:  2.089e-06  alpha:  2.825e-01  linmin:  1.218e-06  t[s]:     37.09
	FillingsUpdate:  mu: -0.115279553  nElectrons: 99.000000
	SubspaceRotationAdjust: set factor to 0.243
ElecMinimize: Iter:  32  F: -459.182369962880045  |grad|_K:  1.982e-06  alpha:  3.849e-01  linmin:  6.139e-07  t[s]:     37.87
	FillingsUpdate:  mu: -0.113541025  nElectrons: 99.000000
	SubspaceRotationAdjust: set factor to 0.21
ElecMinimize: Iter:  33  F: -459.182382144793394  |grad|_K:  1.854e-06  alpha:  3.307e-01  linmin:  3.328e-07  t[s]:     38.65
	FillingsUpdate:  mu: -0.114341120  nElectrons: 99.000000
	SubspaceRotationAdjust: set factor to 0.221
ElecMinimize: Iter:  34  F: -459.182393616429749  |grad|_K:  1.622e-06  alpha:  3.558e-01  linmin:  2.600e-06  t[s]:     39.43
	FillingsUpdate:  mu: -0.115290305  nElectrons: 99.000000
	SubspaceRotationAdjust: set factor to 0.219
ElecMinimize: Iter:  35  F: -459.182402975221748  |grad|_K:  1.563e-06  alpha:  3.794e-01  linmin: -5.181e-07  t[s]:     40.21
	FillingsUpdate:  mu: -0.114021290  nElectrons: 99.000000
	SubspaceRotationAdjust: set factor to 0.197
ElecMinimize: Iter:  36  F: -459.182410640256649  |grad|_K:  1.350e-06  alpha:  3.346e-01  linmin:  5.837e-07  t[s]:     40.99
	FillingsUpdate:  mu: -0.113864611  nElectrons: 99.000000
	SubspaceRotationAdjust: set factor to 0.218
ElecMinimize: Iter:  37  F: -459.182417104726596  |grad|_K:  1.238e-06  alpha:  3.782e-01  linmin:  2.440e-07  t[s]:     41.77
	FillingsUpdate:  mu: -0.114859070  nElectrons: 99.000000
	SubspaceRotationAdjust: set factor to 0.197
ElecMinimize: Iter:  38  F: -459.182422471879079  |grad|_K:  1.172e-06  alpha:  3.734e-01  linmin: -2.418e-07  t[s]:     42.55
	FillingsUpdate:  mu: -0.114395518  nElectrons: 99.000000

Dumping 'X.fillings' ... done
Dumping 'X.wfns' ... done
Dumping 'X.force' ... done
Dumping 'X.eigenvals' ... done
	SubspaceRotationAdjust: set factor to 0.204
ElecMinimize: Iter:  39  F: -459.182427433066835  |grad|_K:  1.090e-06  alpha:  3.854e-01  linmin:  2.249e-07  t[s]:     43.51
	FillingsUpdate:  mu: -0.113851985  nElectrons: 99.000000
	SubspaceRotationAdjust: set factor to 0.203
ElecMinimize: Iter:  40  F: -459.182431902154178  |grad|_K:  1.027e-06  alpha:  4.014e-01  linmin:  6.793e-07  t[s]:     44.28
	FillingsUpdate:  mu: -0.114534961  nElectrons: 99.000000
	SubspaceRotationAdjust: set factor to 0.19
ElecMinimize: Iter:  41  F: -459.182435459760995  |grad|_K:  9.167e-07  alpha:  3.601e-01  linmin: -3.969e-07  t[s]:     45.06
	FillingsUpdate:  mu: -0.114550992  nElectrons: 99.000000
	SubspaceRotationAdjust: set factor to 0.202
ElecMinimize: Iter:  42  F: -459.182438552402971  |grad|_K:  8.429e-07  alpha:  3.925e-01  linmin:  5.858e-07  t[s]:     45.89
	FillingsUpdate:  mu: -0.114017137  nElectrons: 99.000000
	SubspaceRotationAdjust: set factor to 0.192
ElecMinimize: Iter:  43  F: -459.182441162206999  |grad|_K:  8.055e-07  alpha:  3.918e-01  linmin: -1.320e-06  t[s]:     46.67
	FillingsUpdate:  mu: -0.114339707  nElectrons: 99.000000
	SubspaceRotationAdjust: set factor to 0.193
ElecMinimize: Iter:  44  F: -459.182443552513575  |grad|_K:  7.496e-07  alpha:  3.929e-01  linmin:  1.800e-06  t[s]:     47.46
	FillingsUpdate:  mu: -0.114575294  nElectrons: 99.000000
	SubspaceRotationAdjust: set factor to 0.198
ElecMinimize: Iter:  45  F: -459.182445720117187  |grad|_K:  7.265e-07  alpha:  4.116e-01  linmin:  2.312e-06  t[s]:     48.24
	FillingsUpdate:  mu: -0.114127808  nElectrons: 99.000000
	SubspaceRotationAdjust: set factor to 0.188
ElecMinimize: Iter:  46  F: -459.182447636255972  |grad|_K:  6.733e-07  alpha:  3.872e-01  linmin: -4.493e-07  t[s]:     49.03
	FillingsUpdate:  mu: -0.114212197  nElectrons: 99.000000

Dumping 'X.fillings' ... done
Dumping 'X.wfns' ... done
Dumping 'X.force' ... done
Dumping 'X.eigenvals' ... done
	SubspaceRotationAdjust: set factor to 0.197
ElecMinimize: Iter:  47  F: -459.182449317567603  |grad|_K:  6.183e-07  alpha:  3.955e-01  linmin: -4.703e-07  t[s]:     50.00
	FillingsUpdate:  mu: -0.114549231  nElectrons: 99.000000
	SubspaceRotationAdjust: set factor to 0.192
ElecMinimize: Iter:  48  F: -459.182450715207665  |grad|_K:  5.786e-07  alpha:  3.899e-01  linmin:  5.258e-07  t[s]:     50.77
	FillingsUpdate:  mu: -0.114262434  nElectrons: 99.000000
	SubspaceRotationAdjust: set factor to 0.19
ElecMinimize: Iter:  49  F: -459.182451956392129  |grad|_K:  5.411e-07  alpha:  3.955e-01  linmin:  7.377e-07  t[s]:     51.56
	FillingsUpdate:  mu: -0.114143468  nElectrons: 99.000000
	SubspaceRotationAdjust: set factor to 0.198
ElecMinimize: Iter:  50  F: -459.182453072206044  |grad|_K:  5.088e-07  alpha:  4.065e-01  linmin:  2.111e-07  t[s]:     52.34
	FillingsUpdate:  mu: -0.114475370  nElectrons: 99.000000
	SubspaceRotationAdjust: set factor to 0.186
ElecMinimize: Iter:  51  F: -459.182453998798564  |grad|_K:  4.634e-07  alpha:  3.817e-01  linmin: -2.516e-06  t[s]:     53.12
	FillingsUpdate:  mu: -0.114390353  nElectrons: 99.000000
	SubspaceRotationAdjust: set factor to 0.196
ElecMinimize: Iter:  52  F: -459.182454798783226  |grad|_K:  4.251e-07  alpha:  3.970e-01  linmin:  1.254e-06  t[s]:     53.91
ElecMinimize: Converged (|Delta F|<1.000000e-06 for 2 iters).
Setting wave functions to eigenvectors of Hamiltonian

# Ionic positions in lattice coordinates:
ion Na   0.000000000000000   0.000000000000000   0.266670000000000 1
ion Na   0.500000000000000   0.500000000000000   0.313340000000000 1
ion Na   0.000000000000000   0.000000000000000   0.360000000000000 1
ion Na   0.500000000000000   0.500000000000000   0.406670000000000 1
ion Na   0.000000000000000   0.000000000000000   0.453330000000000 1
ion Na   0.500000000000000   0.500000000000000   0.500000000000000 1
ion Na   0.000000000000000   0.000000000000000   0.546670000000000 1
ion Na   0.500000000000000   0.500000000000000   0.593330000000000 1
ion Na   0.000000000000000   0.000000000000000   0.640000000000000 1
ion Na   0.500000000000000   0.500000000000000   0.686660000000000 1
ion Na   0.000000000000000   0.000000000000000   0.733330000000000 1

# Forces in Lattice coordinates:
force Na   0.000000000000000  -0.000000000000000   0.046327752949955 1
force Na  -0.000000000000000   0.000000000000000   0.002062284107360 1
force Na   0.000000000000000  -0.000000000000000  -0.005595548357085 1
force Na  -0.000000000000000   0.000000000000000  -0.015665490074376 1
force Na   0.000000000000000  -0.000000000000000  -0.013741451663048 1
force Na  -0.000000000000000  -0.000000000000000   0.000000000000000 1
force Na   0.000000000000000   0.000000000000000   0.013741451663048 1
force Na  -0.000000000000000   0.000000000000000   0.015665490073922 1
force Na   0.000000000000000  -0.000000000000000   0.005595548357085 1
force Na   0.000000000000000  -0.000000000000000  -0.002062284107360 1
force Na   0.000000000000000  -0.000000000000000  -0.046327752949045 1

# Energy components:
   Eewald =    -7286.0410198710987970
       EH =    -6930.3202209031487655
     Eloc =    13731.2773115702402720
      Enl =     -127.0365258400148605
   Epulay =       -0.0012811375664942
      Exc =      -65.7465787402858979
       KE =      218.7265726441834772
-------------------------------------
     Etot =     -459.1417422776910939
       TS =        0.0407125210921376
-------------------------------------
        F =     -459.1824547987832261

IonicMinimize: Iter:   0  F: -459.182454798783226  |grad|_K:  1.481e-04  t[s]:     54.07
IonicMinimize: None of the convergence criteria satisfied after 0 iterations.

#--- Lowdin population analysis ---
# oxidation-state Na +0.072 +0.047 +0.038 +0.048 +0.045 +0.044 +0.045 +0.048 +0.038 +0.047 +0.072


Dumping 'X.fillings' ... done
Dumping 'X.wfns' ... done
Dumping 'X.ionpos' ... done
Dumping 'X.lattice' ... done
Dumping 'X.n' ... done
Dumping 'X.eigenvals' ... done
Dumping 'X.eigStats' ... 
	eMin: -2.308619 at state 3 ( [ +0.000000 +0.272727 +0.000000 ] spin 0 )
	HOMO: -0.115937 at state 17 ( [ +0.272727 +0.454545 +0.000000 ] spin 0 )
	mu  : -0.114390
	LUMO: -0.114290 at state 9 ( [ +0.090909 +0.363636 +0.000000 ] spin 0 )
	eMax: -0.006714 at state 11 ( [ +0.181818 +0.181818 +0.000000 ] spin 0 )
	HOMO-LUMO gap: +0.001647
	Optical gap  : +0.003795 at state 17 ( [ +0.272727 +0.454545 +0.000000 ] spin 0 )
Dumping 'X.dos' ... done.
End date and time: Thu Nov  9 00:24:43 2023  (Duration: 0-0:00:54.50)
Done!

*************** JDFTx 1.7.0  ***************

Start date and time: Thu Nov  9 00:24:45 2023
Executable jdftx with command-line: -m -i X.in -o X.out
Running on hosts (process indices):  ac0119 (0-20)
Divided in process groups (process indices):  0 (0)  1 (1)  2 (2)  3 (3)  4 (4)  5 (5)  6 (6)  7 (7)  8 (8)  9 (9)  10 (10)  11 (11)  12 (12)  13 (13)  14 (14)  15 (15)  16 (16)  17 (17)  18 (18)  19 (19)  20 (20)
Resource initialization completed at t[s]:      0.03
Run totals: 21 processes, 21 threads, 0 GPUs


Input parsed successfully to the following command list (including defaults):

basis kpoint-dependent
cache-projectors no
coords-type Lattice
core-overlap-check vector
coulomb-interaction Slab 001
coulomb-truncation-embed 0 0 0.5
davidson-band-ratio 1.1
density-of-states Etol 1.000000e-06 Esigma 0.000000e+00 \
		Complete \
	Total \
		Occupied \
	Total
dump End State IonicPositions Lattice ElecDensity CoreDensity EigStats DOS
dump Electronic State Forces
dump Ionic State IonicPositions Forces Lattice DOS
dump-interval Electronic 8
dump-interval Ionic 4
dump-name X.$var
elec-cutoff 20
elec-eigen-algo Davidson
elec-ex-corr gga-PBE
elec-smearing Fermi 0.0095
electronic-minimize  \
	dirUpdateScheme      FletcherReeves \
	linminMethod         DirUpdateRecommended \
	nIterations          2000 \
	history              15 \
	knormThreshold       0 \
	energyDiffThreshold  1e-07 \
	nEnergyDiff          2 \
	alphaTstart          1 \
	alphaTmin            1e-10 \
	updateTestStepSize   yes \
	alphaTreduceFactor   0.1 \
	alphaTincreaseFactor 3 \
	nAlphaAdjustMax      3 \
	wolfeEnergy          0.0001 \
	wolfeGradient        0.9 \
	fdTest               no
exchange-regularization WignerSeitzTruncated
fluid None
fluid-ex-corr (null) lda-PZ
fluid-gummel-loop 10 1.000000e-05
fluid-minimize  \
	dirUpdateScheme      PolakRibiere \
	linminMethod         DirUpdateRecommended \
	nIterations          100 \
	history              15 \
	knormThreshold       0 \
	energyDiffThreshold  0 \
	nEnergyDiff          2 \
	alphaTstart          1 \
	alphaTmin            1e-10 \
	updateTestStepSize   yes \
	alphaTreduceFactor   0.1 \
	alphaTincreaseFactor 3 \
	nAlphaAdjustMax      3 \
	wolfeEnergy          0.0001 \
	wolfeGradient        0.9 \
	fdTest               no
fluid-solvent H2O 55.338 ScalarEOS \
	epsBulk 78.4 \
	pMol 0.92466 \
	epsInf 1.77 \
	Pvap 1.06736e-10 \
	sigmaBulk 4.62e-05 \
	Rvdw 2.61727 \
	Res 1.42 \
	tauNuc 343133 \
	poleEl 15 7 1
forces-output-coords Positions
ion Na   0.000000000000000   0.000000000000000   0.266670000000000 1
ion Na   0.500000000000000   0.500000000000000   0.313340000000000 1
ion Na   0.000000000000000   0.000000000000000   0.360000000000000 1
ion Na   0.500000000000000   0.500000000000000   0.406670000000000 1
ion Na   0.000000000000000   0.000000000000000   0.453330000000000 1
ion Na   0.500000000000000   0.500000000000000   0.500000000000000 1
ion Na   0.000000000000000   0.000000000000000   0.546670000000000 1
ion Na   0.500000000000000   0.500000000000000   0.593330000000000 1
ion Na   0.000000000000000   0.000000000000000   0.640000000000000 1
ion Na   0.500000000000000   0.500000000000000   0.686660000000000 1
ion Na   0.000000000000000   0.000000000000000   0.733330000000000 1
ion-species SG15/$ID_ONCV_PBE.upf
ion-width 0
ionic-minimize  \
	dirUpdateScheme      L-BFGS \
	linminMethod         DirUpdateRecommended \
	nIterations          0 \
	history              15 \
	knormThreshold       0.0001 \
	energyDiffThreshold  1e-06 \
	nEnergyDiff          2 \
	alphaTstart          1 \
	alphaTmin            1e-10 \
	updateTestStepSize   yes \
	alphaTreduceFactor   0.1 \
	alphaTincreaseFactor 3 \
	nAlphaAdjustMax      3 \
	wolfeEnergy          0.0001 \
	wolfeGradient        0.9 \
	fdTest               no
kpoint   0.000000000000   0.000000000000   0.000000000000  1.00000000000000
kpoint-folding 11 11 1 
latt-move-scale 1 1 1
latt-scale 1 1 1 
lattice  \
	   7.936714821600003   -0.000000000000000   -0.000000000000000  \
	   0.000000000000000    7.936714821600003   -0.000000000000000  \
	   0.000000000000000    0.000000000000000   85.037094107999991 
lattice-minimize  \
	dirUpdateScheme      L-BFGS \
	linminMethod         DirUpdateRecommended \
	nIterations          0 \
	history              15 \
	knormThreshold       0 \
	energyDiffThreshold  1e-06 \
	nEnergyDiff          2 \
	alphaTstart          1 \
	alphaTmin            1e-10 \
	updateTestStepSize   yes \
	alphaTreduceFactor   0.1 \
	alphaTincreaseFactor 3 \
	nAlphaAdjustMax      3 \
	wolfeEnergy          0.0001 \
	wolfeGradient        0.9 \
	fdTest               no
lcao-params -1 1e-06 0.0095
pcm-variant GLSSA13
spintype no-spin
subspace-rotation-factor 1 yes
symmetries automatic
symmetry-threshold 0.0001
wavefunction read X.wfns 55 10.000000



---------- Setting up symmetries ----------

Found 16 point-group symmetries of the bravais lattice
Found 16 space-group symmetries with basis
Applied RMS atom displacement 0 bohrs to make symmetries exact.

---------- Initializing the Grid ----------
R = 
[      7.93671            0            0  ]
[            0      7.93671            0  ]
[            0            0      85.0371  ]
unit cell volume = 5356.61
G =
[   0.791661          0          0  ]
[         -0   0.791661          0  ]
[          0         -0  0.0738876  ]
Minimum fftbox size, Smin = [  32  32  344  ]
Chosen fftbox size, S = [  32  32  350  ]

---------- Exchange Correlation functional ----------
Initalized PBE GGA exchange.
Initalized PBE GGA correlation.

---------- Setting up pseudopotentials ----------
Width of ionic core gaussian charges (only for fluid interactions / plotting) set to 0

Reading pseudopotential file '/net/software/testing/software/jdftx/1.7.0-foss-2021b-mkl/share/jdftx/pseudopotentials/SG15/Na_ONCV_PBE.upf':
  'Na' pseudopotential, 'PBE' functional
  Generated using ONCVPSP code by D. R. Hamann
  Author: Martin Schlipf and Francois Gygi  Date: 150915.
  9 valence electrons, 3 orbitals, 4 projectors, 1992 radial grid points, with lMax = 1
  Transforming local potential to a uniform radial grid of dG=0.02 with 1110 points.
  Transforming nonlocal projectors to a uniform radial grid of dG=0.02 with 432 points.
    2S    l: 0   occupation:  2.0   eigenvalue: -2.085640
    2P    l: 1   occupation:  6.0   eigenvalue: -1.053708
    3S    l: 0   occupation:  1.0   eigenvalue: -0.100838
  Transforming atomic orbitals to a uniform radial grid of dG=0.02 with 432 points.
  Core radius for overlap checks: 2.01 bohrs.
  Reading pulay file /net/software/testing/software/jdftx/1.7.0-foss-2021b-mkl/share/jdftx/pseudopotentials/SG15/Na_ONCV_PBE.pulay ... using dE_dnG = -2.946487e-03 computed for Ecut = 20.

Initialized 1 species with 11 total atoms.

Folded 1 k-points by 11x11x1 to 121 k-points.

---------- Setting up k-points, bands, fillings ----------
Reduced to 21 k-points under symmetry. 
Computing the number of bands and number of electrons
Calculating initial fillings.
nElectrons:  99.000000   nBands: 55   nStates: 21

----- Setting up reduced wavefunction bases (one per k-point) -----
average nbasis = 22887.000 , ideal nbasis = 22883.843

----- Initializing Supercell corresponding to k-point mesh -----
Lattice vector linear combinations in supercell:
[  11   0   0  ]
[   0  11   0  ]
[   0   0   1  ]
Supercell lattice vectors:
[  87.3039  0  0  ]
[  0  87.3039  0  ]
[  0  0  85.0371  ]

---------- Setting up coulomb interaction ----------
Setting up double-sized grid for truncated Coulomb potentials:
R = 
[      7.93671            0            0  ]
[            0      7.93671            0  ]
[            0            0      170.074  ]
unit cell volume = 10713.2
G =
[   0.791661          0          0  ]
[         -0   0.791661          0  ]
[          0         -0  0.0369438  ]
Chosen fftbox size, S = [  32  32  700  ]
Integer grid location selected as the embedding center:
   Grid: [  0  0  175  ]
   Lattice: [  0  0  0.5  ]
   Cartesian: [  0  0  42.5185  ]
Constructing Wigner-Seitz cell: 6 faces (6 quadrilaterals, 0 hexagons)
Range-separation parameter for embedded mesh potentials due to point charges: 0.628283 bohrs.
Initialized slab truncation along lattice direction 001

---------- Setting up 2D ewald sum ----------
Optimum gaussian width for ewald sums = 4.734710 bohr.
Real space sums over 225 unit cells with max indices [  7  7  0  ]
Reciprocal space sums over 81 terms with max indices [  4  4  0  ]

---------- Allocating electronic variables ----------
Initializing wave functions:  reading from 'X.wfns'


---- Citations for features of the code used in this run ----

   Software package:
      R. Sundararaman, K. Letchworth-Weaver, K.A. Schwarz, D. Gunceler, Y. Ozhabes and T.A. Arias, 'JDFTx: software for joint density-functional theory', SoftwareX 6, 278 (2017)

   gga-PBE exchange-correlation functional:
      J.P. Perdew, K. Burke and M. Ernzerhof, Phys. Rev. Lett. 77, 3865 (1996)

   Pseudopotentials:
      M Schlipf and F Gygi, Comput. Phys. Commun. 196, 36 (2015)

   Truncated Coulomb potentials:
      R. Sundararaman and T.A. Arias, Phys. Rev. B 87, 165122 (2013)

   Total energy minimization with Auxiliary Hamiltonian:
      C. Freysoldt, S. Boeck, and J. Neugebauer, Phys. Rev. B 79, 241103(R) (2009)

   Linear-tetrahedron sampling for density of states:
      G. Lehmann and M. Taut, Phys. status solidi (b) 54, 469 (1972)

This list may not be complete. Please suggest additional citations or
report any other bugs at https://github.com/shankar1729/jdftx/issues

Initialization completed successfully at t[s]:      0.79


Setting the auxilliary hamiltonian equal to the subspace hamiltonian.

-------- Electronic minimization -----------
	FillingsUpdate:  mu: -0.050066189  nElectrons: 99.000000
ElecMinimize: Iter:   0  F: -459.157723168991367  |grad|_K:  1.134e-03  alpha:  1.000e+00
	FillingsUpdate:  mu: -0.526073375  nElectrons: 99.000000
	SubspaceRotationAdjust: set factor to 0.838
ElecMinimize: Iter:   1  F: -467.503929317064319  |grad|_K:  5.213e-04  alpha:  2.660e-01  linmin:  2.056e-02  t[s]:      8.34
	FillingsUpdate:  mu: +0.254879145  nElectrons: 99.000000
	SubspaceRotationAdjust: set factor to 0.445
ElecMinimize: Iter:   2  F: -467.888400870248518  |grad|_K:  4.021e-04  alpha:  7.700e-02  linmin:  2.322e-03  t[s]:     11.40
	FillingsUpdate:  mu: +0.048369970  nElectrons: 99.000000
	SubspaceRotationAdjust: set factor to 0.375
ElecMinimize: Iter:   3  F: -468.485996074378249  |grad|_K:  1.269e-04  alpha:  1.831e-01  linmin:  5.186e-04  t[s]:     14.43
	FillingsUpdate:  mu: -0.147008455  nElectrons: 99.000000
	SubspaceRotationAdjust: set factor to 0.208
ElecMinimize: Iter:   4  F: -468.531101192461790  |grad|_K:  6.408e-05  alpha:  1.042e-01  linmin: -1.476e-04  t[s]:     17.40
	FillingsUpdate:  mu: -0.147247796  nElectrons: 99.000000
	SubspaceRotationAdjust: set factor to 0.209
ElecMinimize: Iter:   5  F: -468.555322926842223  |grad|_K:  3.230e-05  alpha:  2.215e-01  linmin:  1.231e-05  t[s]:     20.39
	FillingsUpdate:  mu: -0.087083027  nElectrons: 99.000000
	SubspaceRotationAdjust: set factor to 0.159
ElecMinimize: Iter:   6  F: -468.561228349678004  |grad|_K:  1.788e-05  alpha:  2.140e-01  linmin:  1.126e-04  t[s]:     23.37
	FillingsUpdate:  mu: -0.084006648  nElectrons: 99.000000

Dumping 'X.fillings' ... done
Dumping 'X.wfns' ... done
Dumping 'X.force' ... done
Dumping 'X.eigenvals' ... done
	SubspaceRotationAdjust: set factor to 0.22
ElecMinimize: Iter:   7  F: -468.563892842462963  |grad|_K:  1.418e-05  alpha:  3.169e-01  linmin:  1.957e-06  t[s]:     26.66
	FillingsUpdate:  mu: -0.109863477  nElectrons: 99.000000
	SubspaceRotationAdjust: set factor to 0.209
ElecMinimize: Iter:   8  F: -468.566016511274768  |grad|_K:  1.340e-05  alpha:  4.004e-01  linmin:  6.918e-05  t[s]:     29.66
	FillingsUpdate:  mu: -0.103783443  nElectrons: 99.000000
	SubspaceRotationAdjust: set factor to 0.243
ElecMinimize: Iter:   9  F: -468.568115313777128  |grad|_K:  1.287e-05  alpha:  4.469e-01  linmin:  1.761e-05  t[s]:     32.74
	FillingsUpdate:  mu: -0.091812366  nElectrons: 99.000000
	SubspaceRotationAdjust: set factor to 0.242
ElecMinimize: Iter:  10  F: -468.569721731106995  |grad|_K:  1.076e-05  alpha:  3.671e-01  linmin:  1.758e-05  t[s]:     35.70
	FillingsUpdate:  mu: -0.107091166  nElectrons: 99.000000
	SubspaceRotationAdjust: set factor to 0.206
ElecMinimize: Iter:  11  F: -468.570599231314475  |grad|_K:  7.936e-06  alpha:  2.861e-01  linmin:  1.536e-05  t[s]:     38.62
	FillingsUpdate:  mu: -0.103276198  nElectrons: 99.000000
	SubspaceRotationAdjust: set factor to 0.228
ElecMinimize: Iter:  12  F: -468.571124980259526  |grad|_K:  5.545e-06  alpha:  3.168e-01  linmin:  1.116e-05  t[s]:     41.56
	FillingsUpdate:  mu: -0.097471734  nElectrons: 99.000000
	SubspaceRotationAdjust: set factor to 0.217
ElecMinimize: Iter:  13  F: -468.571403781409629  |grad|_K:  4.598e-06  alpha:  3.435e-01  linmin:  9.807e-06  t[s]:     44.52
	FillingsUpdate:  mu: -0.103795832  nElectrons: 99.000000
	SubspaceRotationAdjust: set factor to 0.176
ElecMinimize: Iter:  14  F: -468.571573142144928  |grad|_K:  3.551e-06  alpha:  3.031e-01  linmin:  1.279e-05  t[s]:     47.48
	FillingsUpdate:  mu: -0.102561126  nElectrons: 99.000000

Dumping 'X.fillings' ... done
Dumping 'X.wfns' ... done
Dumping 'X.force' ... done
Dumping 'X.eigenvals' ... done
	SubspaceRotationAdjust: set factor to 0.195
ElecMinimize: Iter:  15  F: -468.571696257406018  |grad|_K:  2.804e-06  alpha:  3.697e-01  linmin:  2.810e-06  t[s]:     50.74
	FillingsUpdate:  mu: -0.098902559  nElectrons: 99.000000
	SubspaceRotationAdjust: set factor to 0.173
ElecMinimize: Iter:  16  F: -468.571768314315420  |grad|_K:  2.257e-06  alpha:  3.466e-01  linmin:  5.753e-06  t[s]:     53.69
	FillingsUpdate:  mu: -0.101487422  nElectrons: 99.000000
	SubspaceRotationAdjust: set factor to 0.165
ElecMinimize: Iter:  17  F: -468.571817001310365  |grad|_K:  1.822e-06  alpha:  3.614e-01  linmin:  6.730e-06  t[s]:     56.65
	FillingsUpdate:  mu: -0.102464868  nElectrons: 99.000000
	SubspaceRotationAdjust: set factor to 0.178
ElecMinimize: Iter:  18  F: -468.571853127937857  |grad|_K:  1.680e-06  alpha:  4.117e-01  linmin:  1.061e-06  t[s]:     59.60
	FillingsUpdate:  mu: -0.100159918  nElectrons: 99.000000
	SubspaceRotationAdjust: set factor to 0.163
ElecMinimize: Iter:  19  F: -468.571884630499653  |grad|_K:  1.555e-06  alpha:  4.219e-01  linmin:  8.295e-06  t[s]:     62.56
	FillingsUpdate:  mu: -0.100799851  nElectrons: 99.000000
	SubspaceRotationAdjust: set factor to 0.177
ElecMinimize: Iter:  20  F: -468.571913334277951  |grad|_K:  1.488e-06  alpha:  4.489e-01  linmin:  2.727e-06  t[s]:     65.52
	FillingsUpdate:  mu: -0.102420680  nElectrons: 99.000000
	SubspaceRotationAdjust: set factor to 0.173
ElecMinimize: Iter:  21  F: -468.571938533400953  |grad|_K:  1.408e-06  alpha:  4.305e-01  linmin:  1.115e-07  t[s]:     68.47
	FillingsUpdate:  mu: -0.101084242  nElectrons: 99.000000
	SubspaceRotationAdjust: set factor to 0.169
ElecMinimize: Iter:  22  F: -468.571961492555943  |grad|_K:  1.285e-06  alpha:  4.376e-01  linmin:  9.618e-07  t[s]:     71.43
	FillingsUpdate:  mu: -0.100877777  nElectrons: 99.000000

Dumping 'X.fillings' ... done
Dumping 'X.wfns' ... done
Dumping 'X.force' ... done
Dumping 'X.eigenvals' ... done
	SubspaceRotationAdjust: set factor to 0.176
ElecMinimize: Iter:  23  F: -468.571979737767379  |grad|_K:  1.154e-06  alpha:  4.177e-01  linmin:  1.309e-07  t[s]:     74.66
	FillingsUpdate:  mu: -0.101981391  nElectrons: 99.000000
	SubspaceRotationAdjust: set factor to 0.167
ElecMinimize: Iter:  24  F: -468.571994233814564  |grad|_K:  1.017e-06  alpha:  4.116e-01  linmin: -1.455e-06  t[s]:     77.67
	FillingsUpdate:  mu: -0.101454426  nElectrons: 99.000000
	SubspaceRotationAdjust: set factor to 0.168
ElecMinimize: Iter:  25  F: -468.572005651706093  |grad|_K:  8.940e-07  alpha:  4.170e-01  linmin:  4.926e-07  t[s]:     80.68
	FillingsUpdate:  mu: -0.101126962  nElectrons: 99.000000
	SubspaceRotationAdjust: set factor to 0.169
ElecMinimize: Iter:  26  F: -468.572014285598357  |grad|_K:  7.781e-07  alpha:  4.084e-01  linmin:  6.036e-07  t[s]:     83.63
	FillingsUpdate:  mu: -0.101700204  nElectrons: 99.000000
	SubspaceRotationAdjust: set factor to 0.164
ElecMinimize: Iter:  27  F: -468.572020858940107  |grad|_K:  6.883e-07  alpha:  4.104e-01  linmin: -1.629e-07  t[s]:     86.63
	FillingsUpdate:  mu: -0.101504454  nElectrons: 99.000000
	SubspaceRotationAdjust: set factor to 0.167
ElecMinimize: Iter:  28  F: -468.572026243053187  |grad|_K:  6.282e-07  alpha:  4.296e-01  linmin:  1.115e-06  t[s]:     89.63
	FillingsUpdate:  mu: -0.101162804  nElectrons: 99.000000
	SubspaceRotationAdjust: set factor to 0.169
ElecMinimize: Iter:  29  F: -468.572030881341220  |grad|_K:  6.080e-07  alpha:  4.443e-01  linmin:  3.510e-06  t[s]:     92.63
	FillingsUpdate:  mu: -0.101531491  nElectrons: 99.000000
	SubspaceRotationAdjust: set factor to 0.168
ElecMinimize: Iter:  30  F: -468.572035406584973  |grad|_K:  6.063e-07  alpha:  4.629e-01  linmin:  4.427e-06  t[s]:     95.64
	FillingsUpdate:  mu: -0.101441279  nElectrons: 99.000000

Dumping 'X.fillings' ... done
Dumping 'X.wfns' ... done
Dumping 'X.force' ... done
Dumping 'X.eigenvals' ... done
	SubspaceRotationAdjust: set factor to 0.173
ElecMinimize: Iter:  31  F: -468.572040125139267  |grad|_K:  6.165e-07  alpha:  4.854e-01  linmin:  3.670e-06  t[s]:     99.02
	FillingsUpdate:  mu: -0.101004791  nElectrons: 99.000000
	SubspaceRotationAdjust: set factor to 0.172
ElecMinimize: Iter:  32  F: -468.572044773430719  |grad|_K:  6.166e-07  alpha:  4.624e-01  linmin:  8.809e-06  t[s]:    102.02
	FillingsUpdate:  mu: -0.101367054  nElectrons: 99.000000
	SubspaceRotationAdjust: set factor to 0.171
ElecMinimize: Iter:  33  F: -468.572049348819974  |grad|_K:  5.899e-07  alpha:  4.551e-01  linmin:  8.100e-07  t[s]:    105.02
	FillingsUpdate:  mu: -0.101430467  nElectrons: 99.000000
	SubspaceRotationAdjust: set factor to 0.175
ElecMinimize: Iter:  34  F: -468.572053510138119  |grad|_K:  5.647e-07  alpha:  4.521e-01  linmin:  4.246e-06  t[s]:    108.02
	FillingsUpdate:  mu: -0.100999076  nElectrons: 99.000000
	SubspaceRotationAdjust: set factor to 0.17
ElecMinimize: Iter:  35  F: -468.572057078386422  |grad|_K:  5.164e-07  alpha:  4.231e-01  linmin:  1.785e-06  t[s]:    111.08
	FillingsUpdate:  mu: -0.101257256  nElectrons: 99.000000
	SubspaceRotationAdjust: set factor to 0.17
ElecMinimize: Iter:  36  F: -468.572060144820568  |grad|_K:  4.743e-07  alpha:  4.348e-01  linmin: -2.169e-08  t[s]:    114.08
	FillingsUpdate:  mu: -0.101450468  nElectrons: 99.000000
	SubspaceRotationAdjust: set factor to 0.173
ElecMinimize: Iter:  37  F: -468.572062709659178  |grad|_K:  4.426e-07  alpha:  4.310e-01  linmin: -4.829e-07  t[s]:    117.08
	FillingsUpdate:  mu: -0.101084111  nElectrons: 99.000000
	SubspaceRotationAdjust: set factor to 0.168
ElecMinimize: Iter:  38  F: -468.572064964643459  |grad|_K:  4.136e-07  alpha:  4.351e-01  linmin: -3.758e-06  t[s]:    120.09
	FillingsUpdate:  mu: -0.101158261  nElectrons: 99.000000

Dumping 'X.fillings' ... done
Dumping 'X.wfns' ... done
Dumping 'X.force' ... done
Dumping 'X.eigenvals' ... done
	SubspaceRotationAdjust: set factor to 0.173
ElecMinimize: Iter:  39  F: -468.572066994610452  |grad|_K:  3.971e-07  alpha:  4.484e-01  linmin: -2.686e-06  t[s]:    123.35
	FillingsUpdate:  mu: -0.101435657  nElectrons: 99.000000
	SubspaceRotationAdjust: set factor to 0.174
ElecMinimize: Iter:  40  F: -468.572068943212855  |grad|_K:  4.029e-07  alpha:  4.672e-01  linmin: -1.020e-05  t[s]:    126.36
	FillingsUpdate:  mu: -0.101148681  nElectrons: 99.000000
	SubspaceRotationAdjust: set factor to 0.174
ElecMinimize: Iter:  41  F: -468.572071040322669  |grad|_K:  4.193e-07  alpha:  4.880e-01  linmin: -2.734e-05  t[s]:    129.37
	FillingsUpdate:  mu: -0.101111242  nElectrons: 99.000000
	SubspaceRotationAdjust: set factor to 0.18
ElecMinimize: Iter:  42  F: -468.572073495479628  |grad|_K:  4.607e-07  alpha:  5.262e-01  linmin: -5.634e-05  t[s]:    132.38
	FillingsUpdate:  mu: -0.101538879  nElectrons: 99.000000
	SubspaceRotationAdjust: set factor to 0.18
ElecMinimize: Iter:  43  F: -468.572076652431292  |grad|_K:  5.411e-07  alpha:  5.586e-01  linmin: -4.321e-05  t[s]:    135.38
	FillingsUpdate:  mu: -0.101240951  nElectrons: 99.000000
	SubspaceRotationAdjust: set factor to 0.179
ElecMinimize: Iter:  44  F: -468.572080606234579  |grad|_K:  5.506e-07  alpha:  4.827e-01  linmin:  4.705e-04  t[s]:    138.38
	FillingsUpdate:  mu: -0.101207633  nElectrons: 99.000000
	SubspaceRotationAdjust: set factor to 0.183
ElecMinimize: Iter:  45  F: -468.572081987856336  |grad|_K:  4.511e-07  alpha:  1.420e-01  linmin: -1.929e-03  t[s]:    141.41
	FillingsUpdate:  mu: -0.101301614  nElectrons: 99.000000
	SubspaceRotationAdjust: set factor to 0.191
ElecMinimize: Iter:  46  F: -468.572083063490709  |grad|_K:  3.403e-07  alpha:  1.604e-01  linmin:  4.795e-04  t[s]:    144.41
	FillingsUpdate:  mu: -0.101392149  nElectrons: 99.000000

Dumping 'X.fillings' ... done
Dumping 'X.wfns' ... done
Dumping 'X.force' ... done
Dumping 'X.eigenvals' ... done
	SubspaceRotationAdjust: set factor to 0.204
ElecMinimize: Iter:  47  F: -468.572083555912513  |grad|_K:  3.428e-07  alpha:  1.685e-01  linmin:  1.607e-04  t[s]:    147.67
	FillingsUpdate:  mu: -0.101418114  nElectrons: 99.000000
	SubspaceRotationAdjust: set factor to 0.231
ElecMinimize: Iter:  48  F: -468.572084062200986  |grad|_K:  3.423e-07  alpha:  1.653e-01  linmin:  1.253e-04  t[s]:    150.69
	FillingsUpdate:  mu: -0.101351825  nElectrons: 99.000000
	SubspaceRotationAdjust: set factor to 0.28
ElecMinimize: Iter:  49  F: -468.572084514694325  |grad|_K:  3.312e-07  alpha:  1.475e-01  linmin:  6.872e-05  t[s]:    153.69
	FillingsUpdate:  mu: -0.101266279  nElectrons: 99.000000
	SubspaceRotationAdjust: set factor to 0.359
ElecMinimize: Iter:  50  F: -468.572084933335816  |grad|_K:  3.396e-07  alpha:  1.454e-01  linmin:  5.917e-05  t[s]:    156.69
	FillingsUpdate:  mu: -0.101261222  nElectrons: 99.000000
	SubspaceRotationAdjust: set factor to 0.439
ElecMinimize: Iter:  51  F: -468.572085372693891  |grad|_K:  3.715e-07  alpha:  1.448e-01  linmin:  3.212e-05  t[s]:    159.69
	FillingsUpdate:  mu: -0.101356161  nElectrons: 99.000000
	SubspaceRotationAdjust: set factor to 0.547
ElecMinimize: Iter:  52  F: -468.572085861746871  |grad|_K:  4.127e-07  alpha:  1.345e-01  linmin:  9.716e-06  t[s]:    162.69
	FillingsUpdate:  mu: -0.101395273  nElectrons: 99.000000
	SubspaceRotationAdjust: set factor to 0.703
ElecMinimize: Iter:  53  F: -468.572086427775218  |grad|_K:  4.543e-07  alpha:  1.259e-01  linmin: -1.043e-06  t[s]:    165.69
	FillingsUpdate:  mu: -0.101271257  nElectrons: 99.000000
	SubspaceRotationAdjust: set factor to 0.933
ElecMinimize: Iter:  54  F: -468.572087004837613  |grad|_K:  4.625e-07  alpha:  1.060e-01  linmin: -1.861e-05  t[s]:    168.70
	FillingsUpdate:  mu: -0.101220204  nElectrons: 99.000000

Dumping 'X.fillings' ... done
Dumping 'X.wfns' ... done
Dumping 'X.force' ... done
Dumping 'X.eigenvals' ... done
	SubspaceRotationAdjust: set factor to 1.24
ElecMinimize: Iter:  55  F: -468.572087552614505  |grad|_K:  4.573e-07  alpha:  9.677e-02  linmin: -5.302e-05  t[s]:    172.66
	FillingsUpdate:  mu: -0.101366585  nElectrons: 99.000000
	SubspaceRotationAdjust: set factor to 1.55
ElecMinimize: Iter:  56  F: -468.572088014830285  |grad|_K:  4.379e-07  alpha:  8.322e-02  linmin: -7.113e-05  t[s]:    175.66
	FillingsUpdate:  mu: -0.101254326  nElectrons: 99.000000
	SubspaceRotationAdjust: set factor to 1.86
ElecMinimize: Iter:  57  F: -468.572088426734695  |grad|_K:  4.003e-07  alpha:  8.035e-02  linmin: -1.360e-04  t[s]:    178.65
	FillingsUpdate:  mu: -0.101311091  nElectrons: 99.000000
	SubspaceRotationAdjust: set factor to 2.08
ElecMinimize: Iter:  58  F: -468.572088805205510  |grad|_K:  3.646e-07  alpha:  8.746e-02  linmin: -2.197e-04  t[s]:    181.65
	FillingsUpdate:  mu: -0.101254928  nElectrons: 99.000000
	SubspaceRotationAdjust: set factor to 2.14
ElecMinimize: Iter:  59  F: -468.572089172374604  |grad|_K:  3.457e-07  alpha:  1.007e-01  linmin: -1.260e-04  t[s]:    184.65
	FillingsUpdate:  mu: -0.101498610  nElectrons: 99.000000
	SubspaceRotationAdjust: set factor to 1.99
ElecMinimize: Iter:  60  F: -468.572089479199235  |grad|_K:  4.506e-07  alpha:  9.468e-02  linmin: -4.228e-05  t[s]:    187.65
	FillingsUpdate:  mu: -0.101190849  nElectrons: 99.000000
	SubspaceRotationAdjust: set factor to 1.49
ElecMinimize: Iter:  61  F: -468.572089671608580  |grad|_K:  3.903e-07  alpha:  3.560e-02  linmin:  1.681e-05  t[s]:    190.65
	FillingsUpdate:  mu: -0.101345094  nElectrons: 99.000000
	SubspaceRotationAdjust: set factor to 1.73
ElecMinimize: Iter:  62  F: -468.572090051787939  |grad|_K:  3.425e-07  alpha:  9.418e-02  linmin: -4.304e-05  t[s]:    193.66
	FillingsUpdate:  mu: -0.101386069  nElectrons: 99.000000

Dumping 'X.fillings' ... done
Dumping 'X.wfns' ... done
Dumping 'X.force' ... done
Dumping 'X.eigenvals' ... done
	SubspaceRotationAdjust: set factor to 2.13
ElecMinimize: Iter:  63  F: -468.572090501466164  |grad|_K:  3.679e-07  alpha:  1.431e-01  linmin:  2.421e-06  t[s]:    196.99
	FillingsUpdate:  mu: -0.101097008  nElectrons: 99.000000
	SubspaceRotationAdjust: set factor to 1.58
ElecMinimize: Iter:  64  F: -468.572090850244763  |grad|_K:  5.228e-07  alpha:  9.738e-02  linmin:  5.904e-06  t[s]:    200.00
	FillingsUpdate:  mu: -0.101428364  nElectrons: 99.000000
	SubspaceRotationAdjust: set factor to 1.36
ElecMinimize: Iter:  65  F: -468.572091097084410  |grad|_K:  3.817e-07  alpha:  3.394e-02  linmin: -2.424e-05  t[s]:    203.00
ElecMinimize: 	Predicted alpha/alphaT>3.000000, increasing alphaT to 1.018169e-01.
	FillingsUpdate:  mu: -0.101404732  nElectrons: 99.000000
	SubspaceRotationAdjust: set factor to 1.85
ElecMinimize: Iter:  66  F: -468.572091525162364  |grad|_K:  3.524e-07  alpha:  1.108e-01  linmin:  7.487e-05  t[s]:    206.97
	FillingsUpdate:  mu: -0.101112013  nElectrons: 99.000000
	SubspaceRotationAdjust: set factor to 1.68
ElecMinimize: Iter:  67  F: -468.572091762951800  |grad|_K:  4.463e-07  alpha:  7.261e-02  linmin: -6.359e-06  t[s]:    210.11
	FillingsUpdate:  mu: -0.101367004  nElectrons: 99.000000
	SubspaceRotationAdjust: set factor to 1.41
ElecMinimize: Iter:  68  F: -468.572092001791304  |grad|_K:  3.200e-07  alpha:  4.501e-02  linmin: -8.460e-06  t[s]:    213.12
	FillingsUpdate:  mu: -0.101352161  nElectrons: 99.000000
	SubspaceRotationAdjust: set factor to 1.59
ElecMinimize: Iter:  69  F: -468.572092294375693  |grad|_K:  3.085e-07  alpha:  1.103e-01  linmin:  1.200e-04  t[s]:    216.14
	FillingsUpdate:  mu: -0.101147757  nElectrons: 99.000000
	SubspaceRotationAdjust: set factor to 1.56
ElecMinimize: Iter:  70  F: -468.572092517624128  |grad|_K:  3.808e-07  alpha:  9.161e-02  linmin:  1.210e-05  t[s]:    219.34
	FillingsUpdate:  mu: -0.101404414  nElectrons: 99.000000

Dumping 'X.fillings' ... done
Dumping 'X.wfns' ... done
Dumping 'X.force' ... done
Dumping 'X.eigenvals' ... done
	SubspaceRotationAdjust: set factor to 1.41
ElecMinimize: Iter:  71  F: -468.572092728367636  |grad|_K:  3.541e-07  alpha:  5.517e-02  linmin: -1.551e-06  t[s]:    222.82
	FillingsUpdate:  mu: -0.101299881  nElectrons: 99.000000
	SubspaceRotationAdjust: set factor to 1.73
ElecMinimize: Iter:  72  F: -468.572093059051724  |grad|_K:  3.408e-07  alpha:  9.997e-02  linmin:  1.737e-05  t[s]:    225.81
	FillingsUpdate:  mu: -0.101224784  nElectrons: 99.000000
	SubspaceRotationAdjust: set factor to 2.1
ElecMinimize: Iter:  73  F: -468.572093422616319  |grad|_K:  3.810e-07  alpha:  1.192e-01  linmin:  7.740e-06  t[s]:    228.76
	FillingsUpdate:  mu: -0.101512011  nElectrons: 99.000000
	SubspaceRotationAdjust: set factor to 1.76
ElecMinimize: Iter:  74  F: -468.572093686160940  |grad|_K:  4.781e-07  alpha:  6.887e-02  linmin:  1.233e-05  t[s]:    231.84
	FillingsUpdate:  mu: -0.101236660  nElectrons: 99.000000
	SubspaceRotationAdjust: set factor to 1.62
ElecMinimize: Iter:  75  F: -468.572093936768681  |grad|_K:  3.672e-07  alpha:  4.171e-02  linmin:  6.916e-06  t[s]:    234.79
	FillingsUpdate:  mu: -0.101329864  nElectrons: 99.000000
	SubspaceRotationAdjust: set factor to 1.91
ElecMinimize: Iter:  76  F: -468.572094263076281  |grad|_K:  3.213e-07  alpha:  9.126e-02  linmin: -5.045e-05  t[s]:    238.07
	FillingsUpdate:  mu: -0.101413053  nElectrons: 99.000000
	SubspaceRotationAdjust: set factor to 2.07
ElecMinimize: Iter:  77  F: -468.572094565794600  |grad|_K:  3.278e-07  alpha:  1.096e-01  linmin: -2.996e-05  t[s]:    241.04
	FillingsUpdate:  mu: -0.101157352  nElectrons: 99.000000
	SubspaceRotationAdjust: set factor to 1.8
ElecMinimize: Iter:  78  F: -468.572094754532543  |grad|_K:  4.256e-07  alpha:  6.599e-02  linmin:  1.296e-06  t[s]:    243.99
	FillingsUpdate:  mu: -0.101414479  nElectrons: 99.000000

Dumping 'X.fillings' ... done
Dumping 'X.wfns' ... done
Dumping 'X.force' ... done
Dumping 'X.eigenvals' ... done
	SubspaceRotationAdjust: set factor to 1.46
ElecMinimize: Iter:  79  F: -468.572094959383890  |grad|_K:  3.199e-07  alpha:  4.286e-02  linmin:  8.948e-08  t[s]:    247.25
	FillingsUpdate:  mu: -0.101378635  nElectrons: 99.000000
	SubspaceRotationAdjust: set factor to 1.68
ElecMinimize: Iter:  80  F: -468.572095268654152  |grad|_K:  3.149e-07  alpha:  1.133e-01  linmin: -2.459e-05  t[s]:    250.21
	FillingsUpdate:  mu: -0.101226771  nElectrons: 99.000000
	SubspaceRotationAdjust: set factor to 1.82
ElecMinimize: Iter:  81  F: -468.572095585972534  |grad|_K:  3.844e-07  alpha:  1.199e-01  linmin:  2.769e-06  t[s]:    253.29
	FillingsUpdate:  mu: -0.101524334  nElectrons: 99.000000
	SubspaceRotationAdjust: set factor to 1.63
ElecMinimize: Iter:  82  F: -468.572095796428869  |grad|_K:  4.190e-07  alpha:  5.396e-02  linmin: -5.949e-06  t[s]:    256.31
	FillingsUpdate:  mu: -0.101311777  nElectrons: 99.000000
	SubspaceRotationAdjust: set factor to 1.79
ElecMinimize: Iter:  83  F: -468.572096129284319  |grad|_K:  3.582e-07  alpha:  7.194e-02  linmin:  4.700e-05  t[s]:    259.28
	FillingsUpdate:  mu: -0.101377681  nElectrons: 99.000000
	SubspaceRotationAdjust: set factor to 2.17
ElecMinimize: Iter:  84  F: -468.572096507760705  |grad|_K:  3.566e-07  alpha:  1.137e-01  linmin:  7.434e-05  t[s]:    262.35
	FillingsUpdate:  mu: -0.101357868  nElectrons: 99.000000
	SubspaceRotationAdjust: set factor to 2.56
ElecMinimize: Iter:  85  F: -468.572096860215538  |grad|_K:  3.524e-07  alpha:  1.063e-01  linmin:  3.500e-05  t[s]:    265.44
	FillingsUpdate:  mu: -0.101396547  nElectrons: 99.000000
	SubspaceRotationAdjust: set factor to 2.92
ElecMinimize: Iter:  86  F: -468.572097174448629  |grad|_K:  3.495e-07  alpha:  9.642e-02  linmin:  1.718e-05  t[s]:    268.68
	FillingsUpdate:  mu: -0.101227446  nElectrons: 99.000000

Dumping 'X.fillings' ... done
Dumping 'X.wfns' ... done
Dumping 'X.force' ... done
Dumping 'X.eigenvals' ... done
	SubspaceRotationAdjust: set factor to 2.92
ElecMinimize: Iter:  87  F: -468.572097438255184  |grad|_K:  4.365e-07  alpha:  8.196e-02  linmin:  5.384e-06  t[s]:    271.94
	FillingsUpdate:  mu: -0.101500288  nElectrons: 99.000000
	SubspaceRotationAdjust: set factor to 2.33
ElecMinimize: Iter:  88  F: -468.572097575521639  |grad|_K:  4.301e-07  alpha:  2.730e-02  linmin: -1.115e-06  t[s]:    274.91
	FillingsUpdate:  mu: -0.101343092  nElectrons: 99.000000
	SubspaceRotationAdjust: set factor to 2.56
ElecMinimize: Iter:  89  F: -468.572097855837853  |grad|_K:  3.549e-07  alpha:  5.764e-02  linmin:  1.009e-05  t[s]:    277.87
	FillingsUpdate:  mu: -0.101388672  nElectrons: 99.000000
	SubspaceRotationAdjust: set factor to 3.11
ElecMinimize: Iter:  90  F: -468.572098189529413  |grad|_K:  3.714e-07  alpha:  1.002e-01  linmin: -2.715e-05  t[s]:    280.95
	FillingsUpdate:  mu: -0.101387353  nElectrons: 99.000000
	SubspaceRotationAdjust: set factor to 3.95
ElecMinimize: Iter:  91  F: -468.572098575834048  |grad|_K:  3.990e-07  alpha:  1.050e-01  linmin: -5.271e-05  t[s]:    284.02
	FillingsUpdate:  mu: -0.101422414  nElectrons: 99.000000
	SubspaceRotationAdjust: set factor to 5.07
ElecMinimize: Iter:  92  F: -468.572099001484048  |grad|_K:  4.171e-07  alpha:  1.001e-01  linmin: -2.662e-05  t[s]:    287.12
	FillingsUpdate:  mu: -0.101207277  nElectrons: 99.000000
	SubspaceRotationAdjust: set factor to 3.64
ElecMinimize: Iter:  93  F: -468.572099331770573  |grad|_K:  6.240e-07  alpha:  7.049e-02  linmin: -5.478e-06  t[s]:    290.16
	FillingsUpdate:  mu: -0.101474621  nElectrons: 99.000000
	SubspaceRotationAdjust: set factor to 2.63
ElecMinimize: Iter:  94  F: -468.572099448163556  |grad|_K:  4.092e-07  alpha:  1.099e-02  linmin: -4.838e-05  t[s]:    293.35
ElecMinimize: 	Predicted alpha/alphaT>3.000000, increasing alphaT to 3.296957e-02.
	FillingsUpdate:  mu: -0.101570721  nElectrons: 99.000000

Dumping 'X.fillings' ... done
Dumping 'X.wfns' ... done
Dumping 'X.force' ... done
Dumping 'X.eigenvals' ... done
	SubspaceRotationAdjust: set factor to 2.64
ElecMinimize: Iter:  95  F: -468.572099724881809  |grad|_K:  4.643e-07  alpha:  6.275e-02  linmin:  1.002e-04  t[s]:    297.58
	FillingsUpdate:  mu: -0.101345626  nElectrons: 99.000000
	SubspaceRotationAdjust: set factor to 2.32
ElecMinimize: Iter:  96  F: -468.572099824041516  |grad|_K:  3.585e-07  alpha:  1.777e-02  linmin: -4.741e-05  t[s]:    300.64
ElecMinimize: 	Predicted alpha/alphaT>3.000000, increasing alphaT to 5.330218e-02.
	FillingsUpdate:  mu: -0.101176049  nElectrons: 99.000000
	SubspaceRotationAdjust: set factor to 1.79
ElecMinimize: Iter:  97  F: -468.572100017687831  |grad|_K:  5.022e-07  alpha:  5.590e-02  linmin:  3.150e-05  t[s]:    304.68
	FillingsUpdate:  mu: -0.101380993  nElectrons: 99.000000
	SubspaceRotationAdjust: set factor to 2.41
ElecMinimize: Iter:  98  F: -468.572100151026234  |grad|_K:  3.350e-07  alpha:  1.969e-02  linmin: -4.708e-05  t[s]:    307.66
	FillingsUpdate:  mu: -0.101607671  nElectrons: 99.000000
	SubspaceRotationAdjust: set factor to 1.74
ElecMinimize: Iter:  99  F: -468.572100280965117  |grad|_K:  5.219e-07  alpha:  4.355e-02  linmin:  5.797e-05  t[s]:    310.63
	FillingsUpdate:  mu: -0.101484340  nElectrons: 99.000000
	SubspaceRotationAdjust: set factor to 2.11
ElecMinimize: Iter: 100  F: -468.572100473800106  |grad|_K:  3.867e-07  alpha:  2.686e-02  linmin: -1.980e-05  t[s]:    313.62
	FillingsUpdate:  mu: -0.101243583  nElectrons: 99.000000
	SubspaceRotationAdjust: set factor to 2.01
ElecMinimize: Iter: 101  F: -468.572100589631020  |grad|_K:  4.345e-07  alpha:  2.907e-02  linmin:  3.162e-05  t[s]:    316.58
	FillingsUpdate:  mu: -0.101192676  nElectrons: 99.000000
	SubspaceRotationAdjust: set factor to 1.72
ElecMinimize: Iter: 102  F: -468.572100812491556  |grad|_K:  4.752e-07  alpha:  4.493e-02  linmin:  1.313e-05  t[s]:    319.55
	FillingsUpdate:  mu: -0.101423175  nElectrons: 99.000000

Dumping 'X.fillings' ... done
Dumping 'X.wfns' ... done
Dumping 'X.force' ... done
Dumping 'X.eigenvals' ... done
	SubspaceRotationAdjust: set factor to 2.03
ElecMinimize: Iter: 103  F: -468.572100941386623  |grad|_K:  3.719e-07  alpha:  2.159e-02  linmin: -9.479e-06  t[s]:    322.78
	FillingsUpdate:  mu: -0.101603896  nElectrons: 99.000000
	SubspaceRotationAdjust: set factor to 1.56
ElecMinimize: Iter: 104  F: -468.572101110298888  |grad|_K:  5.098e-07  alpha:  4.643e-02  linmin:  2.892e-05  t[s]:    325.81
	FillingsUpdate:  mu: -0.101426545  nElectrons: 99.000000
	SubspaceRotationAdjust: set factor to 2.51
ElecMinimize: Iter: 105  F: -468.572101266371760  |grad|_K:  3.380e-07  alpha:  2.289e-02  linmin:  7.185e-06  t[s]:    328.77
	FillingsUpdate:  mu: -0.101225553  nElectrons: 99.000000
	SubspaceRotationAdjust: set factor to 2.33
ElecMinimize: Iter: 106  F: -468.572101368288145  |grad|_K:  4.215e-07  alpha:  3.324e-02  linmin: -7.403e-05  t[s]:    331.80
	FillingsUpdate:  mu: -0.101312242  nElectrons: 99.000000
	SubspaceRotationAdjust: set factor to 3.57
ElecMinimize: Iter: 107  F: -468.572101526456663  |grad|_K:  3.184e-07  alpha:  3.295e-02  linmin: -3.418e-06  t[s]:    334.77
	FillingsUpdate:  mu: -0.101496928  nElectrons: 99.000000
	SubspaceRotationAdjust: set factor to 3.32
ElecMinimize: Iter: 108  F: -468.572101607035336  |grad|_K:  3.919e-07  alpha:  3.002e-02  linmin: -1.897e-06  t[s]:    337.73
	FillingsUpdate:  mu: -0.101370608  nElectrons: 99.000000
	SubspaceRotationAdjust: set factor to 3.59
ElecMinimize: Iter: 109  F: -468.572101714866108  |grad|_K:  2.756e-07  alpha:  2.659e-02  linmin: -2.467e-05  t[s]:    340.70
	FillingsUpdate:  mu: -0.101279623  nElectrons: 99.000000
	SubspaceRotationAdjust: set factor to 3.82
ElecMinimize: Iter: 110  F: -468.572101822870252  |grad|_K:  3.389e-07  alpha:  5.345e-02  linmin:  6.308e-06  t[s]:    343.68
	FillingsUpdate:  mu: -0.101450957  nElectrons: 99.000000

Dumping 'X.fillings' ... done
Dumping 'X.wfns' ... done
Dumping 'X.force' ... done
Dumping 'X.eigenvals' ... done
	SubspaceRotationAdjust: set factor to 2.97
ElecMinimize: Iter: 111  F: -468.572101879219247  |grad|_K:  3.023e-07  alpha:  1.889e-02  linmin:  1.882e-05  t[s]:    347.07
	FillingsUpdate:  mu: -0.101393434  nElectrons: 99.000000
	SubspaceRotationAdjust: set factor to 3.6
ElecMinimize: Iter: 112  F: -468.572101989645660  |grad|_K:  2.579e-07  alpha:  4.445e-02  linmin: -2.452e-04  t[s]:    350.05
	FillingsUpdate:  mu: -0.101276929  nElectrons: 99.000000
	SubspaceRotationAdjust: set factor to 3.11
ElecMinimize: Iter: 113  F: -468.572102101983148  |grad|_K:  3.465e-07  alpha:  6.180e-02  linmin:  5.870e-06  t[s]:    353.03
	FillingsUpdate:  mu: -0.101449006  nElectrons: 99.000000
	SubspaceRotationAdjust: set factor to 2.69
ElecMinimize: Iter: 114  F: -468.572102164222827  |grad|_K:  2.950e-07  alpha:  1.959e-02  linmin:  1.081e-05  t[s]:    355.99
	FillingsUpdate:  mu: -0.101419123  nElectrons: 99.000000
	SubspaceRotationAdjust: set factor to 3.88
ElecMinimize: Iter: 115  F: -468.572102287582538  |grad|_K:  2.729e-07  alpha:  5.344e-02  linmin: -2.877e-05  t[s]:    358.97
	FillingsUpdate:  mu: -0.101241357  nElectrons: 99.000000
	SubspaceRotationAdjust: set factor to 2.97
ElecMinimize: Iter: 116  F: -468.572102367168668  |grad|_K:  3.908e-07  alpha:  4.024e-02  linmin:  1.189e-05  t[s]:    361.93
	FillingsUpdate:  mu: -0.101396081  nElectrons: 99.000000
	SubspaceRotationAdjust: set factor to 2.91
ElecMinimize: Iter: 117  F: -468.572102456159712  |grad|_K:  2.682e-07  alpha:  2.200e-02  linmin: -1.810e-06  t[s]:    364.87
ElecMinimize: Converged (|Delta F|<1.000000e-07 for 2 iters).
Setting wave functions to eigenvectors of Hamiltonian

# Ionic positions in lattice coordinates:
ion Na   0.000000000000000   0.000000000000000   0.266670000000000 1
ion Na   0.500000000000000   0.500000000000000   0.313340000000000 1
ion Na   0.000000000000000   0.000000000000000   0.360000000000000 1
ion Na   0.500000000000000   0.500000000000000   0.406670000000000 1
ion Na   0.000000000000000   0.000000000000000   0.453330000000000 1
ion Na   0.500000000000000   0.500000000000000   0.500000000000000 1
ion Na   0.000000000000000   0.000000000000000   0.546670000000000 1
ion Na   0.500000000000000   0.500000000000000   0.593330000000000 1
ion Na   0.000000000000000   0.000000000000000   0.640000000000000 1
ion Na   0.500000000000000   0.500000000000000   0.686660000000000 1
ion Na   0.000000000000000   0.000000000000000   0.733330000000000 1

# Forces in Lattice coordinates:
force Na   0.000000000000000  -0.000000000000000  -0.035470901173409 1
force Na   0.000000000000000   0.000000000000000   0.019287295323474 1
force Na   0.000000000000000  -0.000000000000000   0.002562032295986 1
force Na   0.000000000000000  -0.000000000000000   0.000632831112251 1
force Na   0.000000000000000   0.000000000000000   0.007853923490362 1
force Na   0.000000000000000  -0.000000000000000   0.000000000000000 1
force Na   0.000000000000000   0.000000000000000  -0.007853923490362 1
force Na   0.000000000000000   0.000000000000000  -0.000632831113160 1
force Na   0.000000000000000  -0.000000000000000  -0.002562032295986 1
force Na   0.000000000000000  -0.000000000000000  -0.019287295324383 1
force Na   0.000000000000000  -0.000000000000000   0.035470901174318 1

# Energy components:
   Eewald =    -7286.0410198710978875
       EH =    -6911.0692552003456512
     Eloc =    13701.1122282573687698
      Enl =     -142.1928694205197417
   Epulay =        0.0000191039904038
      Exc =      -68.8658797306768946
       KE =      238.5282885632706211
-------------------------------------
     Etot =     -468.5284882980103021
       TS =        0.0436141581494345
-------------------------------------
        F =     -468.5721024561597119

IonicMinimize: Iter:   0  F: -468.572102456159712  |grad|_K:  1.193e-04  t[s]:    365.28
IonicMinimize: None of the convergence criteria satisfied after 0 iterations.

#--- Lowdin population analysis ---
# oxidation-state Na +0.076 +0.051 +0.048 +0.056 +0.054 +0.053 +0.054 +0.056 +0.048 +0.051 +0.076


Dumping 'X.fillings' ... done
Dumping 'X.wfns' ... done
Dumping 'X.ionpos' ... done
Dumping 'X.lattice' ... done
Dumping 'X.n' ... done
Dumping 'X.eigenvals' ... done
Dumping 'X.eigStats' ... 
	eMin: -2.063311 at state 0 ( [ +0.000000 +0.000000 +0.000000 ] spin 0 )
	HOMO: -0.102477 at state 17 ( [ +0.272727 +0.454545 +0.000000 ] spin 0 )
	mu  : -0.101396
	LUMO: -0.101139 at state 9 ( [ +0.090909 +0.363636 +0.000000 ] spin 0 )
	eMax: -0.001724 at state 11 ( [ +0.181818 +0.181818 +0.000000 ] spin 0 )
	HOMO-LUMO gap: +0.001338
	Optical gap  : +0.003546 at state 17 ( [ +0.272727 +0.454545 +0.000000 ] spin 0 )
Dumping 'X.dos' ... done.
End date and time: Thu Nov  9 00:30:51 2023  (Duration: 0-0:06:05.74)
Done!

*************** JDFTx 1.7.0  ***************

Start date and time: Thu Nov  9 00:30:53 2023
Executable jdftx with command-line: -m -i X.in -o X.out
Running on hosts (process indices):  ac0119 (0-20)
Divided in process groups (process indices):  0 (0)  1 (1)  2 (2)  3 (3)  4 (4)  5 (5)  6 (6)  7 (7)  8 (8)  9 (9)  10 (10)  11 (11)  12 (12)  13 (13)  14 (14)  15 (15)  16 (16)  17 (17)  18 (18)  19 (19)  20 (20)
Resource initialization completed at t[s]:      0.00
Run totals: 21 processes, 21 threads, 0 GPUs


Input parsed successfully to the following command list (including defaults):

basis kpoint-dependent
cache-projectors no
coords-type Lattice
core-overlap-check vector
coulomb-interaction Slab 001
coulomb-truncation-embed 0 0 0.5
davidson-band-ratio 1.1
density-of-states Etol 1.000000e-06 Esigma 0.000000e+00 \
		Complete \
	Total \
		Occupied \
	Total
dump End State IonicPositions Lattice ElecDensity CoreDensity EigStats DOS
dump Electronic State Forces
dump Ionic State IonicPositions Forces Lattice DOS
dump-interval Electronic 8
dump-interval Ionic 4
dump-name X.$var
elec-cutoff 30
elec-eigen-algo Davidson
elec-ex-corr gga-PBE
elec-smearing Fermi 0.0095
electronic-minimize  \
	dirUpdateScheme      FletcherReeves \
	linminMethod         DirUpdateRecommended \
	nIterations          2000 \
	history              15 \
	knormThreshold       0 \
	energyDiffThreshold  1e-07 \
	nEnergyDiff          2 \
	alphaTstart          1 \
	alphaTmin            1e-10 \
	updateTestStepSize   yes \
	alphaTreduceFactor   0.1 \
	alphaTincreaseFactor 3 \
	nAlphaAdjustMax      3 \
	wolfeEnergy          0.0001 \
	wolfeGradient        0.9 \
	fdTest               no
exchange-regularization WignerSeitzTruncated
fluid None
fluid-ex-corr (null) lda-PZ
fluid-gummel-loop 10 1.000000e-05
fluid-minimize  \
	dirUpdateScheme      PolakRibiere \
	linminMethod         DirUpdateRecommended \
	nIterations          100 \
	history              15 \
	knormThreshold       0 \
	energyDiffThreshold  0 \
	nEnergyDiff          2 \
	alphaTstart          1 \
	alphaTmin            1e-10 \
	updateTestStepSize   yes \
	alphaTreduceFactor   0.1 \
	alphaTincreaseFactor 3 \
	nAlphaAdjustMax      3 \
	wolfeEnergy          0.0001 \
	wolfeGradient        0.9 \
	fdTest               no
fluid-solvent H2O 55.338 ScalarEOS \
	epsBulk 78.4 \
	pMol 0.92466 \
	epsInf 1.77 \
	Pvap 1.06736e-10 \
	sigmaBulk 4.62e-05 \
	Rvdw 2.61727 \
	Res 1.42 \
	tauNuc 343133 \
	poleEl 15 7 1
forces-output-coords Positions
ion Na   0.000000000000000   0.000000000000000   0.266670000000000 1
ion Na   0.500000000000000   0.500000000000000   0.313340000000000 1
ion Na   0.000000000000000   0.000000000000000   0.360000000000000 1
ion Na   0.500000000000000   0.500000000000000   0.406670000000000 1
ion Na   0.000000000000000   0.000000000000000   0.453330000000000 1
ion Na   0.500000000000000   0.500000000000000   0.500000000000000 1
ion Na   0.000000000000000   0.000000000000000   0.546670000000000 1
ion Na   0.500000000000000   0.500000000000000   0.593330000000000 1
ion Na   0.000000000000000   0.000000000000000   0.640000000000000 1
ion Na   0.500000000000000   0.500000000000000   0.686660000000000 1
ion Na   0.000000000000000   0.000000000000000   0.733330000000000 1
ion-species SG15/$ID_ONCV_PBE.upf
ion-width 0
ionic-minimize  \
	dirUpdateScheme      L-BFGS \
	linminMethod         DirUpdateRecommended \
	nIterations          0 \
	history              15 \
	knormThreshold       0.0001 \
	energyDiffThreshold  1e-06 \
	nEnergyDiff          2 \
	alphaTstart          1 \
	alphaTmin            1e-10 \
	updateTestStepSize   yes \
	alphaTreduceFactor   0.1 \
	alphaTincreaseFactor 3 \
	nAlphaAdjustMax      3 \
	wolfeEnergy          0.0001 \
	wolfeGradient        0.9 \
	fdTest               no
kpoint   0.000000000000   0.000000000000   0.000000000000  1.00000000000000
kpoint-folding 11 11 1 
latt-move-scale 1 1 1
latt-scale 1 1 1 
lattice  \
	   7.936714821600003   -0.000000000000000   -0.000000000000000  \
	   0.000000000000000    7.936714821600003   -0.000000000000000  \
	   0.000000000000000    0.000000000000000   85.037094107999991 
lattice-minimize  \
	dirUpdateScheme      L-BFGS \
	linminMethod         DirUpdateRecommended \
	nIterations          0 \
	history              15 \
	knormThreshold       0 \
	energyDiffThreshold  1e-06 \
	nEnergyDiff          2 \
	alphaTstart          1 \
	alphaTmin            1e-10 \
	updateTestStepSize   yes \
	alphaTreduceFactor   0.1 \
	alphaTincreaseFactor 3 \
	nAlphaAdjustMax      3 \
	wolfeEnergy          0.0001 \
	wolfeGradient        0.9 \
	fdTest               no
lcao-params -1 1e-06 0.0095
pcm-variant GLSSA13
spintype no-spin
subspace-rotation-factor 1 yes
symmetries automatic
symmetry-threshold 0.0001
wavefunction read X.wfns 55 20.000000



---------- Setting up symmetries ----------

Found 16 point-group symmetries of the bravais lattice
Found 16 space-group symmetries with basis
Applied RMS atom displacement 0 bohrs to make symmetries exact.

---------- Initializing the Grid ----------
R = 
[      7.93671            0            0  ]
[            0      7.93671            0  ]
[            0            0      85.0371  ]
unit cell volume = 5356.61
G =
[   0.791661          0          0  ]
[         -0   0.791661          0  ]
[          0         -0  0.0738876  ]
Minimum fftbox size, Smin = [  40  40  420  ]
Chosen fftbox size, S = [  40  40  420  ]

---------- Exchange Correlation functional ----------
Initalized PBE GGA exchange.
Initalized PBE GGA correlation.

---------- Setting up pseudopotentials ----------
Width of ionic core gaussian charges (only for fluid interactions / plotting) set to 0

Reading pseudopotential file '/net/software/testing/software/jdftx/1.7.0-foss-2021b-mkl/share/jdftx/pseudopotentials/SG15/Na_ONCV_PBE.upf':
  'Na' pseudopotential, 'PBE' functional
  Generated using ONCVPSP code by D. R. Hamann
  Author: Martin Schlipf and Francois Gygi  Date: 150915.
  9 valence electrons, 3 orbitals, 4 projectors, 1992 radial grid points, with lMax = 1
  Transforming local potential to a uniform radial grid of dG=0.02 with 1368 points.
  Transforming nonlocal projectors to a uniform radial grid of dG=0.02 with 528 points.
    2S    l: 0   occupation:  2.0   eigenvalue: -2.085640
    2P    l: 1   occupation:  6.0   eigenvalue: -1.053708
    3S    l: 0   occupation:  1.0   eigenvalue: -0.100838
  Transforming atomic orbitals to a uniform radial grid of dG=0.02 with 528 points.
  Core radius for overlap checks: 2.01 bohrs.
  Reading pulay file /net/software/testing/software/jdftx/1.7.0-foss-2021b-mkl/share/jdftx/pseudopotentials/SG15/Na_ONCV_PBE.pulay ... using dE_dnG = -3.261361e-04 computed for Ecut = 30.

Initialized 1 species with 11 total atoms.

Folded 1 k-points by 11x11x1 to 121 k-points.

---------- Setting up k-points, bands, fillings ----------
Reduced to 21 k-points under symmetry. 
Computing the number of bands and number of electrons
Calculating initial fillings.
nElectrons:  99.000000   nBands: 55   nStates: 21

----- Setting up reduced wavefunction bases (one per k-point) -----
average nbasis = 42041.628 , ideal nbasis = 42040.303

----- Initializing Supercell corresponding to k-point mesh -----
Lattice vector linear combinations in supercell:
[  11   0   0  ]
[   0  11   0  ]
[   0   0   1  ]
Supercell lattice vectors:
[  87.3039  0  0  ]
[  0  87.3039  0  ]
[  0  0  85.0371  ]

---------- Setting up coulomb interaction ----------
Setting up double-sized grid for truncated Coulomb potentials:
R = 
[      7.93671            0            0  ]
[            0      7.93671            0  ]
[            0            0      170.074  ]
unit cell volume = 10713.2
G =
[   0.791661          0          0  ]
[         -0   0.791661          0  ]
[          0         -0  0.0369438  ]
Chosen fftbox size, S = [  40  40  840  ]
Integer grid location selected as the embedding center:
   Grid: [  0  0  210  ]
   Lattice: [  0  0  0.5  ]
   Cartesian: [  0  0  42.5185  ]
Constructing Wigner-Seitz cell: 6 faces (6 quadrilaterals, 0 hexagons)
Range-separation parameter for embedded mesh potentials due to point charges: 0.567662 bohrs.
Initialized slab truncation along lattice direction 001

---------- Setting up 2D ewald sum ----------
Optimum gaussian width for ewald sums = 4.734710 bohr.
Real space sums over 225 unit cells with max indices [  7  7  0  ]
Reciprocal space sums over 81 terms with max indices [  4  4  0  ]

---------- Allocating electronic variables ----------
Initializing wave functions:  reading from 'X.wfns'


---- Citations for features of the code used in this run ----

   Software package:
      R. Sundararaman, K. Letchworth-Weaver, K.A. Schwarz, D. Gunceler, Y. Ozhabes and T.A. Arias, 'JDFTx: software for joint density-functional theory', SoftwareX 6, 278 (2017)

   gga-PBE exchange-correlation functional:
      J.P. Perdew, K. Burke and M. Ernzerhof, Phys. Rev. Lett. 77, 3865 (1996)

   Pseudopotentials:
      M Schlipf and F Gygi, Comput. Phys. Commun. 196, 36 (2015)

   Truncated Coulomb potentials:
      R. Sundararaman and T.A. Arias, Phys. Rev. B 87, 165122 (2013)

   Total energy minimization with Auxiliary Hamiltonian:
      C. Freysoldt, S. Boeck, and J. Neugebauer, Phys. Rev. B 79, 241103(R) (2009)

   Linear-tetrahedron sampling for density of states:
      G. Lehmann and M. Taut, Phys. status solidi (b) 54, 469 (1972)

This list may not be complete. Please suggest additional citations or
report any other bugs at https://github.com/shankar1729/jdftx/issues

Initialization completed successfully at t[s]:      1.26


Setting the auxilliary hamiltonian equal to the subspace hamiltonian.

-------- Electronic minimization -----------
	FillingsUpdate:  mu: -0.046168846  nElectrons: 99.000000
ElecMinimize: Iter:   0  F: -468.550292181810050  |grad|_K:  6.414e-05  alpha:  1.000e+00
[...]
Dumping 'X.force' ... done
Dumping 'X.eigenvals' ... done
	SubspaceRotationAdjust: set factor to 0.146
ElecMinimize: Iter:  23  F: -468.580306474965369  |grad|_K:  1.107e-08  alpha:  3.386e-01  linmin: -1.208e-04  t[s]:    916.48
	FillingsUpdate:  mu: -0.096760519  nElectrons: 99.000000
	SubspaceRotationAdjust: set factor to 0.168
ElecMinimize: Iter:  24  F: -468.580306480587694  |grad|_K:  8.656e-09  alpha:  4.332e-01  linmin:  6.361e-05  t[s]:    930.98
ElecMinimize: Converged (|Delta F|<1.000000e-08 for 2 iters).
Setting wave functions to eigenvectors of Hamiltonian
Converging empty states (this may take a while): |deigs|: 7.502e-08

# Ionic positions in lattice coordinates:
ion Na   0.000000000000000  -0.000000000000000   0.266420853139372 1
ion Na   0.500000000000000   0.500000000000000   0.313678001450002 1
ion Na   0.000000000000000   0.000000000000000   0.360104035949874 1
ion Na   0.500000000000000   0.500000000000000   0.406179824179976 1
ion Na   0.000000000000000  -0.000000000000000   0.453488588476236 1
ion Na   0.500000000000000   0.500000000000000   0.500000000000000 1
ion Na   0.000000000000000  -0.000000000000000   0.546511411523764 1
ion Na   0.500000000000000   0.500000000000000   0.593820175820024 1
ion Na   0.000000000000000   0.000000000000000   0.639895964050126 1
ion Na   0.500000000000000   0.500000000000000   0.686321998549998 1
ion Na   0.000000000000000  -0.000000000000000   0.733579146860628 1

# Forces in Lattice coordinates:
force Na  -0.000000000000000  -0.000000000000000   0.007642546854973 1
force Na   0.000000000000000  -0.000000000000000  -0.004758894619581 1
force Na  -0.000000000000000   0.000000000000000  -0.003034326596836 1
force Na   0.000000000000000  -0.000000000000000   0.009447055142844 1
force Na   0.000000000000000   0.000000000000000  -0.012604944026516 1
force Na   0.000000000000000   0.000000000000000   0.000000000000000 1
force Na   0.000000000000000  -0.000000000000000   0.012604944026061 1
force Na   0.000000000000000   0.000000000000000  -0.009447055143754 1
force Na  -0.000000000000000  -0.000000000000000   0.003034326596836 1
force Na   0.000000000000000  -0.000000000000000   0.004758894618671 1
force Na   0.000000000000000  -0.000000000000000  -0.007642546855881 1

# Energy components:
   Eewald =    -7287.1113357356616689
       EH =    -6911.6458872135508500
     Eloc =    13702.7016620782978862
      Enl =     -142.2432135055783817
   Epulay =       -0.0000000428109679
      Exc =      -68.8798881124573086
       KE =      238.5988128411355547
-------------------------------------
     Etot =     -468.5798496906257924
       TS =        0.0004567899619002
-------------------------------------
        F =     -468.5803064805876943


Dumping 'X.fillings' ... done
Dumping 'X.wfns' ... done
Dumping 'X.ionpos' ... done
Dumping 'X.force' ... done
Dumping 'X.lattice' ... done
Dumping 'X.eigenvals' ... done
Dumping 'X.dos' ... done.
IonicMinimize: Iter:   3  F: -468.580306480587694  |grad|_K:  5.326e-05  alpha:  1.000e+00  linmin:  8.469e-01  t[s]:    949.10

#--- Lowdin population analysis ---
# oxidation-state Na +0.052 +0.053 +0.032 +0.047 +0.043 +0.036 +0.043 +0.047 +0.032 +0.053 +0.052


-------- Electronic minimization -----------
	FillingsUpdate:  mu: -0.096181645  nElectrons: 99.000000
ElecMinimize: Iter:   0  F: -468.580274029735847  |grad|_K:  1.046e-06  alpha:  1.000e+00
	FillingsUpdate:  mu: -0.097419320  nElectrons: 99.000000
	SubspaceRotationAdjust: set factor to 0.131
ElecMinimize: Iter:   1  F: -468.580306465876845  |grad|_K:  2.546e-07  alpha:  2.835e-01  linmin:  1.487e-04  t[s]:    974.60
	FillingsUpdate:  mu: -0.096544512  nElectrons: 99.000000
	SubspaceRotationAdjust: set factor to 0.0904
ElecMinimize: Iter:   2  F: -468.580308654362739  |grad|_K:  1.439e-07  alpha:  3.231e-01  linmin: -4.645e-06  t[s]:    989.08
	FillingsUpdate:  mu: -0.097001831  nElectrons: 99.000000
	SubspaceRotationAdjust: set factor to 0.0902
ElecMinimize: Iter:   3  F: -468.580309654266159  |grad|_K:  9.828e-08  alpha:  4.620e-01  linmin:  5.744e-05  t[s]:   1003.57
	FillingsUpdate:  mu: -0.097045289  nElectrons: 99.000000
	SubspaceRotationAdjust: set factor to 0.106
ElecMinimize: Iter:   4  F: -468.580310197239214  |grad|_K:  7.785e-08  alpha:  5.376e-01  linmin: -4.432e-05  t[s]:   1018.03
	FillingsUpdate:  mu: -0.096790123  nElectrons: 99.000000
	SubspaceRotationAdjust: set factor to 0.105
ElecMinimize: Iter:   5  F: -468.580310579521665  |grad|_K:  5.783e-08  alpha:  6.027e-01  linmin: -1.612e-05  t[s]:   1032.55
	FillingsUpdate:  mu: -0.096805258  nElectrons: 99.000000
	SubspaceRotationAdjust: set factor to 0.116
ElecMinimize: Iter:   6  F: -468.580310776719557  |grad|_K:  4.351e-08  alpha:  5.633e-01  linmin: -6.248e-05  t[s]:   1047.08
	FillingsUpdate:  mu: -0.096799128  nElectrons: 99.000000

Dumping 'X.fillings' ... done
Dumping 'X.wfns' ... done
Dumping 'X.ionpos' ... done
Dumping 'X.force' ... done
Dumping 'X.eigenvals' ... done
	SubspaceRotationAdjust: set factor to 0.125
ElecMinimize: Iter:   7  F: -468.580310874263830  |grad|_K:  3.131e-08  alpha:  4.923e-01  linmin: -1.153e-05  t[s]:   1062.83
	FillingsUpdate:  mu: -0.096770439  nElectrons: 99.000000
	SubspaceRotationAdjust: set factor to 0.135
ElecMinimize: Iter:   8  F: -468.580310931225995  |grad|_K:  2.591e-08  alpha:  5.518e-01  linmin: -5.286e-04  t[s]:   1077.41
	FillingsUpdate:  mu: -0.096735130  nElectrons: 99.000000
	SubspaceRotationAdjust: set factor to 0.141
ElecMinimize: Iter:   9  F: -468.580310975355815  |grad|_K:  2.567e-08  alpha:  6.227e-01  linmin:  1.160e-04  t[s]:   1091.91
	FillingsUpdate:  mu: -0.096743689  nElectrons: 99.000000
	SubspaceRotationAdjust: set factor to 0.147
ElecMinimize: Iter:  10  F: -468.580311010692355  |grad|_K:  2.236e-08  alpha:  5.172e-01  linmin: -2.514e-05  t[s]:   1106.55
	FillingsUpdate:  mu: -0.096759135  nElectrons: 99.000000
	SubspaceRotationAdjust: set factor to 0.153
ElecMinimize: Iter:  11  F: -468.580311033974340  |grad|_K:  1.659e-08  alpha:  4.441e-01  linmin:  4.573e-05  t[s]:   1121.00
	FillingsUpdate:  mu: -0.096749238  nElectrons: 99.000000
	SubspaceRotationAdjust: set factor to 0.155
ElecMinimize: Iter:  12  F: -468.580311047104658  |grad|_K:  1.187e-08  alpha:  4.657e-01  linmin:  1.163e-04  t[s]:   1135.50
	FillingsUpdate:  mu: -0.096767743  nElectrons: 99.000000
	SubspaceRotationAdjust: set factor to 0.158
ElecMinimize: Iter:  13  F: -468.580311054090998  |grad|_K:  8.984e-09  alpha:  4.781e-01  linmin:  1.737e-04  t[s]:   1149.99
	FillingsUpdate:  mu: -0.096775737  nElectrons: 99.000000
	SubspaceRotationAdjust: set factor to 0.162
ElecMinimize: Iter:  14  F: -468.580311058194070  |grad|_K:  7.735e-09  alpha:  5.019e-01  linmin:  4.340e-04  t[s]:   1164.53
ElecMinimize: Converged (|Delta F|<1.000000e-08 for 2 iters).
Setting wave functions to eigenvectors of Hamiltonian
Converging empty states (this may take a while): |deigs|: 1.810e-08

# Ionic positions in lattice coordinates:
ion Na  -0.000000000000000  -0.000000000000000   0.266528252835453 1
ion Na   0.500000000000000   0.500000000000000   0.313578063911403 1
ion Na  -0.000000000000000   0.000000000000000   0.360051401770720 1
ion Na   0.500000000000000   0.500000000000000   0.406299034667374 1
ion Na  -0.000000000000000  -0.000000000000000   0.453364232842046 1
ion Na   0.500000000000000   0.500000000000000   0.500000000000000 1
ion Na  -0.000000000000000  -0.000000000000000   0.546635767157954 1
ion Na   0.500000000000000   0.500000000000000   0.593700965332626 1
ion Na  -0.000000000000000   0.000000000000000   0.639948598229280 1
ion Na   0.500000000000000   0.500000000000000   0.686421936088597 1
ion Na  -0.000000000000000  -0.000000000000000   0.733471747164547 1

# Forces in Lattice coordinates:
force Na   0.000000000000000   0.000000000000000   0.002412681289982 1
force Na  -0.000000000000000   0.000000000000000   0.002517011482039 1
force Na   0.000000000000000  -0.000000000000000   0.000380315836375 1
force Na  -0.000000000000000   0.000000000000000   0.000282172645803 1
force Na   0.000000000000000   0.000000000000000  -0.003039392003439 1
force Na   0.000000000000000   0.000000000000000   0.000000000000000 1
force Na   0.000000000000000  -0.000000000000000   0.003039392003211 1
force Na  -0.000000000000000  -0.000000000000000  -0.000282172646258 1
force Na   0.000000000000000  -0.000000000000000  -0.000380315836375 1
force Na  -0.000000000000000   0.000000000000000  -0.002517011482039 1
force Na   0.000000000000000   0.000000000000000  -0.002412681289981 1

# Energy components:
   Eewald =    -7286.8698947098164354
       EH =    -6911.4060656959136395
     Eloc =    13702.2201547617551114
      Enl =     -142.2432340246773492
   Epulay =       -0.0000000428109679
      Exc =      -68.8801370732452938
       KE =      238.5993259766663073
-------------------------------------
     Etot =     -468.5798508080421811
       TS =        0.0004602501518682
-------------------------------------
        F =     -468.5803110581940700

IonicMinimize: Iter:   4  F: -468.580311058194070  |grad|_K:  1.346e-05  alpha:  1.000e+00  linmin: -3.695e-01  t[s]:   1181.23

#--- Lowdin population analysis ---
# oxidation-state Na +0.052 +0.053 +0.032 +0.047 +0.043 +0.037 +0.043 +0.047 +0.032 +0.053 +0.052


-------- Electronic minimization -----------
	FillingsUpdate:  mu: -0.096701450  nElectrons: 99.000000
ElecMinimize: Iter:   0  F: -468.580309625386235  |grad|_K:  2.325e-07  alpha:  1.000e+00
	FillingsUpdate:  mu: -0.097026323  nElectrons: 99.000000
	SubspaceRotationAdjust: set factor to 0.113
ElecMinimize: Iter:   1  F: -468.580311205920964  |grad|_K:  6.064e-08  alpha:  2.798e-01  linmin:  3.238e-05  t[s]:   1206.77
	FillingsUpdate:  mu: -0.096773559  nElectrons: 99.000000
	SubspaceRotationAdjust: set factor to 0.0738
ElecMinimize: Iter:   2  F: -468.580311321224769  |grad|_K:  3.056e-08  alpha:  2.995e-01  linmin:  1.183e-04  t[s]:   1221.31
	FillingsUpdate:  mu: -0.096808358  nElectrons: 99.000000
	SubspaceRotationAdjust: set factor to 0.0906
ElecMinimize: Iter:   3  F: -468.580311365334751  |grad|_K:  1.881e-08  alpha:  4.506e-01  linmin: -9.546e-04  t[s]:   1235.78
	FillingsUpdate:  mu: -0.096819559  nElectrons: 99.000000
	SubspaceRotationAdjust: set factor to 0.0939
ElecMinimize: Iter:   4  F: -468.580311384037770  |grad|_K:  1.330e-08  alpha:  4.930e-01  linmin: -6.144e-04  t[s]:   1250.48
	FillingsUpdate:  mu: -0.096778129  nElectrons: 99.000000
	SubspaceRotationAdjust: set factor to 0.102
ElecMinimize: Iter:   5  F: -468.580311396129389  |grad|_K:  1.058e-08  alpha:  6.378e-01  linmin: -2.998e-04  t[s]:   1265.11
	FillingsUpdate:  mu: -0.096763873  nElectrons: 99.000000
	SubspaceRotationAdjust: set factor to 0.115
ElecMinimize: Iter:   6  F: -468.580311403715370  |grad|_K:  9.330e-09  alpha:  6.355e-01  linmin: -6.481e-04  t[s]:   1279.69
	FillingsUpdate:  mu: -0.096772394  nElectrons: 99.000000

Dumping 'X.fillings' ... done
Dumping 'X.wfns' ... done
Dumping 'X.ionpos' ... done
Dumping 'X.force' ... done
Dumping 'X.eigenvals' ... done
	SubspaceRotationAdjust: set factor to 0.129
ElecMinimize: Iter:   7  F: -468.580311408955936  |grad|_K:  7.552e-09  alpha:  5.715e-01  linmin: -5.900e-04  t[s]:   1295.24
ElecMinimize: Converged (|Delta F|<1.000000e-08 for 2 iters).
Setting wave functions to eigenvectors of Hamiltonian
Converging empty states (this may take a while): |deigs|: 2.267e-09

# Ionic positions in lattice coordinates:
ion Na  -0.000000000000000  -0.000000000000000   0.266567145843612 1
ion Na   0.500000000000000   0.500000000000000   0.313588555898831 1
ion Na  -0.000000000000000   0.000000000000000   0.360045573582724 1
ion Na   0.500000000000000   0.500000000000000   0.406289564043038 1
ion Na  -0.000000000000000  -0.000000000000000   0.453328793941743 1
ion Na   0.500000000000000   0.500000000000000   0.500000000000000 1
ion Na  -0.000000000000000  -0.000000000000000   0.546671206058257 1
ion Na   0.500000000000000   0.500000000000000   0.593710435956962 1
ion Na  -0.000000000000000   0.000000000000000   0.639954426417276 1
ion Na   0.500000000000000   0.500000000000000   0.686411444101169 1
ion Na  -0.000000000000000  -0.000000000000000   0.733432854156388 1

# Forces in Lattice coordinates:
force Na  -0.000000000000000  -0.000000000000000   0.001736090245333 1
force Na   0.000000000000000   0.000000000000000   0.003498284701933 1
force Na  -0.000000000000000   0.000000000000000   0.001468633145607 1
force Na  -0.000000000000000   0.000000000000000   0.000535268619016 1
force Na  -0.000000000000000   0.000000000000000  -0.001278558563170 1
force Na   0.000000000000000   0.000000000000000   0.000000000000000 1
force Na  -0.000000000000000   0.000000000000000   0.001278558563397 1
force Na   0.000000000000000   0.000000000000000  -0.000535268619016 1
force Na  -0.000000000000000   0.000000000000000  -0.001468633145607 1
force Na   0.000000000000000   0.000000000000000  -0.003498284702843 1
force Na   0.000000000000000  -0.000000000000000  -0.001736090245334 1

# Energy components:
   Eewald =    -7286.4236120296945955
       EH =    -6910.9594734576612609
     Eloc =    13701.3271835297055077
      Enl =     -142.2432627979009396
   Epulay =       -0.0000000428109679
      Exc =      -68.8802405770436366
       KE =      238.5995545631913615
-------------------------------------
     Etot =     -468.5798508122144881
       TS =        0.0004605967414600
-------------------------------------
        F =     -468.5803114089559358

IonicMinimize: Iter:   5  F: -468.580311408955936  |grad|_K:  1.273e-05  alpha:  1.000e+00  linmin: -5.642e-01  t[s]:   1308.61

#--- Lowdin population analysis ---
# oxidation-state Na +0.052 +0.053 +0.032 +0.047 +0.043 +0.037 +0.043 +0.047 +0.032 +0.053 +0.052


-------- Electronic minimization -----------
	FillingsUpdate:  mu: -0.097080223  nElectrons: 99.000000
ElecMinimize: Iter:   0  F: -468.580297313610913  |grad|_K:  6.481e-07  alpha:  1.000e+00
	FillingsUpdate:  mu: -0.097219293  nElectrons: 99.000000
	SubspaceRotationAdjust: set factor to 0.154
ElecMinimize: Iter:   1  F: -468.580310157606334  |grad|_K:  1.489e-07  alpha:  2.925e-01  linmin: -4.623e-05  t[s]:   1334.14
	FillingsUpdate:  mu: -0.096934329  nElectrons: 99.000000
	SubspaceRotationAdjust: set factor to 0.193
ElecMinimize: Iter:   2  F: -468.580311157839731  |grad|_K:  8.157e-08  alpha:  4.317e-01  linmin:  1.424e-06  t[s]:   1348.61
	FillingsUpdate:  mu: -0.096910553  nElectrons: 99.000000
	SubspaceRotationAdjust: set factor to 0.198
ElecMinimize: Iter:   3  F: -468.580311490682845  |grad|_K:  4.997e-08  alpha:  4.785e-01  linmin: -5.621e-05  t[s]:   1363.09
	FillingsUpdate:  mu: -0.096683791  nElectrons: 99.000000
	SubspaceRotationAdjust: set factor to 0.162
ElecMinimize: Iter:   4  F: -468.580311601767335  |grad|_K:  3.987e-08  alpha:  4.257e-01  linmin: -1.394e-05  t[s]:   1377.61
	FillingsUpdate:  mu: -0.096814931  nElectrons: 99.000000
	SubspaceRotationAdjust: set factor to 0.126
ElecMinimize: Iter:   5  F: -468.580311664345629  |grad|_K:  3.078e-08  alpha:  3.764e-01  linmin:  1.180e-04  t[s]:   1392.11
	FillingsUpdate:  mu: -0.096736435  nElectrons: 99.000000
	SubspaceRotationAdjust: set factor to 0.133
ElecMinimize: Iter:   6  F: -468.580311728874278  |grad|_K:  2.705e-08  alpha:  6.485e-01  linmin: -1.205e-04  t[s]:   1406.64
	FillingsUpdate:  mu: -0.096730489  nElectrons: 99.000000

Dumping 'X.fillings' ... done
Dumping 'X.wfns' ... done
Dumping 'X.ionpos' ... done
Dumping 'X.force' ... done
Dumping 'X.eigenvals' ... done
	SubspaceRotationAdjust: set factor to 0.145
ElecMinimize: Iter:   7  F: -468.580311769757714  |grad|_K:  2.144e-08  alpha:  5.351e-01  linmin: -2.877e-05  t[s]:   1422.31
	FillingsUpdate:  mu: -0.096801376  nElectrons: 99.000000
	SubspaceRotationAdjust: set factor to 0.124
ElecMinimize: Iter:   8  F: -468.580311790272788  |grad|_K:  1.485e-08  alpha:  4.280e-01  linmin:  1.485e-04  t[s]:   1436.85
	FillingsUpdate:  mu: -0.096772351  nElectrons: 99.000000
	SubspaceRotationAdjust: set factor to 0.119
ElecMinimize: Iter:   9  F: -468.580311801762548  |grad|_K:  1.134e-08  alpha:  4.909e-01  linmin: -6.186e-05  t[s]:   1451.35
	FillingsUpdate:  mu: -0.096782063  nElectrons: 99.000000
	SubspaceRotationAdjust: set factor to 0.13
ElecMinimize: Iter:  10  F: -468.580311809366037  |grad|_K:  9.671e-09  alpha:  5.523e-01  linmin: -4.907e-04  t[s]:   1465.85
	FillingsUpdate:  mu: -0.096802725  nElectrons: 99.000000
	SubspaceRotationAdjust: set factor to 0.127
ElecMinimize: Iter:  11  F: -468.580311814821641  |grad|_K:  8.050e-09  alpha:  5.386e-01  linmin: -2.291e-04  t[s]:   1480.32
ElecMinimize: Converged (|Delta F|<1.000000e-08 for 2 iters).
Setting wave functions to eigenvectors of Hamiltonian
Converging empty states (this may take a while): |deigs|: 3.962e-08

# Ionic positions in lattice coordinates:
ion Na  -0.000000000000000  -0.000000000000000   0.266691253918506 1
ion Na   0.500000000000000   0.500000000000000   0.313652573003644 1
ion Na  -0.000000000000000   0.000000000000000   0.360058919072989 1
ion Na   0.500000000000000   0.500000000000000   0.406258761698462 1
ion Na  -0.000000000000000  -0.000000000000000   0.453259801794589 1
ion Na   0.500000000000000   0.500000000000000   0.500000000000000 1
ion Na  -0.000000000000000  -0.000000000000000   0.546740198205411 1
ion Na   0.500000000000000   0.500000000000000   0.593741238301538 1
ion Na  -0.000000000000000   0.000000000000000   0.639941080927011 1
ion Na   0.500000000000000   0.500000000000000   0.686347426996356 1
ion Na  -0.000000000000000  -0.000000000000000   0.733308746081494 1

# Forces in Lattice coordinates:
force Na   0.000000000000000   0.000000000000000  -0.000332732666769 1
force Na  -0.000000000000000   0.000000000000000   0.001570408314050 1
force Na   0.000000000000000   0.000000000000000  -0.001257041702919 1
force Na  -0.000000000000000   0.000000000000000  -0.000796303747436 1
force Na   0.000000000000000  -0.000000000000000   0.000060893864263 1
force Na   0.000000000000000   0.000000000000000   0.000000000000000 1
force Na   0.000000000000000  -0.000000000000000  -0.000060893864036 1
force Na  -0.000000000000000  -0.000000000000000   0.000796303747436 1
force Na   0.000000000000000  -0.000000000000000   0.001257041702919 1
force Na  -0.000000000000000  -0.000000000000000  -0.001570408314050 1
force Na   0.000000000000000   0.000000000000000   0.000332732667681 1

# Energy components:
   Eewald =    -7284.2826455875319880
       EH =    -6908.8218996626155786
     Eloc =    13697.0483310672680091
      Enl =     -142.2433353890030503
   Epulay =       -0.0000000428109679
      Exc =      -68.8805764089275812
       KE =      238.6002756073264948
-------------------------------------
     Etot =     -468.5798504162946756
       TS =        0.0004613985269926
-------------------------------------
        F =     -468.5803118148216413

IonicMinimize: Iter:   6  F: -468.580311814821641  |grad|_K:  6.339e-06  alpha:  1.000e+00  linmin: -1.800e-01  t[s]:   1498.20
IonicMinimize: Converged (|grad|_K<1.000000e-05).

#--- Lowdin population analysis ---
# oxidation-state Na +0.052 +0.052 +0.032 +0.047 +0.043 +0.037 +0.043 +0.047 +0.032 +0.052 +0.052


Dumping 'X.fillings' ... done
Dumping 'X.wfns' ... done
Dumping 'X.ionpos' ... done
Dumping 'X.lattice' ... done
Dumping 'X.n' ... done
Dumping 'X.eigenvals' ... done
Dumping 'X.eigStats' ... 
	eMin: -2.059042 at state 0 ( [ +0.000000 +0.000000 +0.000000 ] spin 0 )
	HOMO: -0.097599 at state 9 ( [ +0.090909 +0.363636 +0.000000 ] spin 0 )
	mu  : -0.096803
	LUMO: -0.096478 at state 10 ( [ +0.090909 +0.454545 +0.000000 ] spin 0 )
	eMax: -0.008947 at state 11 ( [ +0.181818 +0.181818 +0.000000 ] spin 0 )
	HOMO-LUMO gap: +0.001120
	Optical gap  : +0.003518 at state 17 ( [ +0.272727 +0.454545 +0.000000 ] spin 0 )
Dumping 'X.dos' ... done.
End date and time: Thu Nov  9 01:29:21 2023  (Duration: 0-0:25:00.15)
Done!
