
*************** JDFTx 1.7.0  ***************

Start date and time: Thu Nov  9 00:34:28 2023
Executable jdftx with command-line: -m -i X.in -o X.out
Running on hosts (process indices):  ac0015 (0-20)
Divided in process groups (process indices):  0 (0)  1 (1)  2 (2)  3 (3)  4 (4)  5 (5)  6 (6)  7 (7)  8 (8)  9 (9)  10 (10)  11 (11)  12 (12)  13 (13)  14 (14)  15 (15)  16 (16)  17 (17)  18 (18)  19 (19)  20 (20)
Resource initialization completed at t[s]:      0.01
Run totals: 21 processes, 21 threads, 0 GPUs


Input parsed successfully to the following command list (including defaults):

basis kpoint-dependent
cache-projectors no
coords-type Lattice
core-overlap-check vector
coulomb-interaction Slab 001
coulomb-truncation-embed 0 0 0.5
davidson-band-ratio 1.1
density-of-states Etol 1.000000e-06 Esigma 0.000000e+00 \
		Complete \
	Total \
		Occupied \
	Total
dump End State IonicPositions Lattice ElecDensity CoreDensity EigStats DOS
dump Electronic State Forces
dump Ionic State IonicPositions Forces Lattice DOS
dump-interval Electronic 8
dump-interval Ionic 4
dump-name X.$var
elec-cutoff 10
elec-eigen-algo Davidson
elec-ex-corr gga-PBE
elec-smearing Fermi 0.0095
electronic-minimize  \
	dirUpdateScheme      FletcherReeves \
	linminMethod         DirUpdateRecommended \
	nIterations          2000 \
	history              15 \
	knormThreshold       0 \
	energyDiffThreshold  1e-06 \
	nEnergyDiff          2 \
	alphaTstart          1 \
	alphaTmin            1e-10 \
	updateTestStepSize   yes \
	alphaTreduceFactor   0.1 \
	alphaTincreaseFactor 3 \
	nAlphaAdjustMax      3 \
	wolfeEnergy          0.0001 \
	wolfeGradient        0.9 \
	fdTest               no
exchange-regularization WignerSeitzTruncated
fluid None
fluid-ex-corr (null) lda-PZ
fluid-gummel-loop 10 1.000000e-05
fluid-minimize  \
	dirUpdateScheme      PolakRibiere \
	linminMethod         DirUpdateRecommended \
	nIterations          100 \
	history              15 \
	knormThreshold       0 \
	energyDiffThreshold  0 \
	nEnergyDiff          2 \
	alphaTstart          1 \
	alphaTmin            1e-10 \
	updateTestStepSize   yes \
	alphaTreduceFactor   0.1 \
	alphaTincreaseFactor 3 \
	nAlphaAdjustMax      3 \
	wolfeEnergy          0.0001 \
	wolfeGradient        0.9 \
	fdTest               no
fluid-solvent H2O 55.338 ScalarEOS \
	epsBulk 78.4 \
	pMol 0.92466 \
	epsInf 1.77 \
	Pvap 1.06736e-10 \
	sigmaBulk 4.62e-05 \
	Rvdw 2.61727 \
	Res 1.42 \
	tauNuc 343133 \
	poleEl 15 7 1
forces-output-coords Positions
initial-state X.$var
ion Na   0.000000000000000   0.000000000000000   0.243900000000000 1
ion Na   0.500000000000000   0.500000000000000   0.286590000000000 1
ion Na   0.000000000000000   0.000000000000000   0.329270000000000 1
ion Na   0.500000000000000   0.500000000000000   0.371950000000000 1
ion Na   0.000000000000000   0.000000000000000   0.414630000000000 1
ion Na   0.500000000000000   0.500000000000000   0.457320000000000 1
ion Na   0.000000000000000   0.000000000000000   0.500000000000000 1
ion Na   0.500000000000000   0.500000000000000   0.542680000000000 1
ion Na   0.000000000000000   0.000000000000000   0.585370000000000 1
ion Na   0.500000000000000   0.500000000000000   0.628050000000000 1
ion Na   0.000000000000000   0.000000000000000   0.670730000000000 1
ion Na   0.500000000000000   0.500000000000000   0.713410000000000 1
ion Na   0.000000000000000   0.000000000000000   0.756100000000000 1
ion-species SG15/$ID_ONCV_PBE.upf
ion-width 0
ionic-minimize  \
	dirUpdateScheme      L-BFGS \
	linminMethod         DirUpdateRecommended \
	nIterations          0 \
	history              15 \
	knormThreshold       0.0001 \
	energyDiffThreshold  1e-06 \
	nEnergyDiff          2 \
	alphaTstart          1 \
	alphaTmin            1e-10 \
	updateTestStepSize   yes \
	alphaTreduceFactor   0.1 \
	alphaTincreaseFactor 3 \
	nAlphaAdjustMax      3 \
	wolfeEnergy          0.0001 \
	wolfeGradient        0.9 \
	fdTest               no
kpoint   0.000000000000   0.000000000000   0.000000000000  1.00000000000000
kpoint-folding 11 11 1 
latt-move-scale 1 1 1
latt-scale 1.88973 1.88973 1.88973 
lattice  \
	   4.199920000000001   -0.000000000000000   -0.000000000000000  \
	   0.000000000000000    4.199920000000001   -0.000000000000000  \
	   0.000000000000000    0.000000000000000   49.199499999999993 
lattice-minimize  \
	dirUpdateScheme      L-BFGS \
	linminMethod         DirUpdateRecommended \
	nIterations          0 \
	history              15 \
	knormThreshold       0 \
	energyDiffThreshold  1e-06 \
	nEnergyDiff          2 \
	alphaTstart          1 \
	alphaTmin            1e-10 \
	updateTestStepSize   yes \
	alphaTreduceFactor   0.1 \
	alphaTincreaseFactor 3 \
	nAlphaAdjustMax      3 \
	wolfeEnergy          0.0001 \
	wolfeGradient        0.9 \
	fdTest               no
lcao-params -1 1e-06 0.0095
pcm-variant GLSSA13
spintype no-spin
subspace-rotation-factor 1 yes
symmetries automatic
symmetry-threshold 0.0001



---------- Setting up symmetries ----------

Found 16 point-group symmetries of the bravais lattice
Found 16 space-group symmetries with basis
Applied RMS atom displacement 0 bohrs to make symmetries exact.

---------- Initializing the Grid ----------
R = 
[      7.93671            0            0  ]
[            0      7.93671            0  ]
[            0            0      92.9738  ]
unit cell volume = 5856.55
G =
[   0.791661          0          0  ]
[         -0   0.791661          0  ]
[          0         -0  0.0675802  ]
Minimum fftbox size, Smin = [  24  24  268  ]
Chosen fftbox size, S = [  24  24  270  ]

---------- Exchange Correlation functional ----------
Initalized PBE GGA exchange.
Initalized PBE GGA correlation.

---------- Setting up pseudopotentials ----------
Width of ionic core gaussian charges (only for fluid interactions / plotting) set to 0

Reading pseudopotential file '/net/software/testing/software/jdftx/1.7.0-foss-2021b-mkl/share/jdftx/pseudopotentials/SG15/Na_ONCV_PBE.upf':
  'Na' pseudopotential, 'PBE' functional
  Generated using ONCVPSP code by D. R. Hamann
  Author: Martin Schlipf and Francois Gygi  Date: 150915.
  9 valence electrons, 3 orbitals, 4 projectors, 1992 radial grid points, with lMax = 1
  Transforming local potential to a uniform radial grid of dG=0.02 with 817 points.
  Transforming nonlocal projectors to a uniform radial grid of dG=0.02 with 307 points.
    2S    l: 0   occupation:  2.0   eigenvalue: -2.085640
    2P    l: 1   occupation:  6.0   eigenvalue: -1.053708
    3S    l: 0   occupation:  1.0   eigenvalue: -0.100838
  Transforming atomic orbitals to a uniform radial grid of dG=0.02 with 307 points.
  Core radius for overlap checks: 2.01 bohrs.
  Reading pulay file /net/software/testing/software/jdftx/1.7.0-foss-2021b-mkl/share/jdftx/pseudopotentials/SG15/Na_ONCV_PBE.pulay ... using dE_dnG = -1.681960e+00 computed for Ecut = 10.

Initialized 1 species with 13 total atoms.

Folded 1 k-points by 11x11x1 to 121 k-points.

---------- Setting up k-points, bands, fillings ----------
Reduced to 21 k-points under symmetry. 
Computing the number of bands and number of electrons
Calculating initial fillings.
nElectrons: 117.000000   nBands: 65   nStates: 21

----- Setting up reduced wavefunction bases (one per k-point) -----
average nbasis = 8843.909 , ideal nbasis = 8845.777

----- Initializing Supercell corresponding to k-point mesh -----
Lattice vector linear combinations in supercell:
[  11   0   0  ]
[   0  11   0  ]
[   0   0   1  ]
Supercell lattice vectors:
[  87.3039  0  0  ]
[  0  87.3039  0  ]
[  0  0  92.9738  ]

---------- Setting up coulomb interaction ----------
Setting up double-sized grid for truncated Coulomb potentials:
R = 
[      7.93671            0            0  ]
[            0      7.93671            0  ]
[            0            0      185.948  ]
unit cell volume = 11713.1
G =
[   0.791661          0          0  ]
[         -0   0.791661          0  ]
[          0         -0  0.0337901  ]
Chosen fftbox size, S = [  24  24  540  ]
Integer grid location selected as the embedding center:
   Grid: [  0  0  135  ]
   Lattice: [  0  0  0.5  ]
   Cartesian: [  0  0  46.4869  ]
Constructing Wigner-Seitz cell: 6 faces (6 quadrilaterals, 0 hexagons)
Range-separation parameter for embedded mesh potentials due to point charges: 0.740301 bohrs.
Initialized slab truncation along lattice direction 001

---------- Setting up 2D ewald sum ----------
Optimum gaussian width for ewald sums = 4.734710 bohr.
Real space sums over 225 unit cells with max indices [  7  7  0  ]
Reciprocal space sums over 81 terms with max indices [  4  4  0  ]

---------- Allocating electronic variables ----------
Initializing wave functions:  linear combination of atomic orbitals
Na pseudo-atom occupations:   s ( 2 1 )  p ( 6 )
	FillingsUpdate:  mu: +0.180384203  nElectrons: 117.000000
LCAOMinimize: Iter:   0  F: -541.7130103756722974  |grad|_K:  6.049e-03  alpha:  1.000e+00
LCAOMinimize: 	Step increased F by 1.492062e-01, reducing alpha to 9.192348e-03.
	FillingsUpdate:  mu: +0.087258906  nElectrons: 117.000000
LCAOMinimize: Iter:   1  F: -541.7394728092300511  |grad|_K:  4.341e-03  alpha:  9.192e-03  linmin: -2.072e-01  cgtest:  9.938e-01  t[s]:      2.32
LCAOMinimize: Encountered beta<0, resetting CG.
LCAOMinimize: 	Predicted alpha/alphaT>3.000000, increasing alphaT to 2.757704e-02.
	FillingsUpdate:  mu: -0.124737583  nElectrons: 117.000000
LCAOMinimize: Iter:   2  F: -541.7677080614487295  |grad|_K:  8.218e-04  alpha:  3.287e-02  linmin:  1.606e-02  cgtest: -9.491e-02  t[s]:      3.29
LCAOMinimize: 	Predicted alpha/alphaT>3.000000, increasing alphaT to 9.859791e-02.
	FillingsUpdate:  mu: -0.159732461  nElectrons: 117.000000
LCAOMinimize: Iter:   3  F: -541.7724769195882573  |grad|_K:  4.655e-04  alpha:  1.585e-01  linmin:  1.425e-03  cgtest:  1.226e-01  t[s]:      4.26
	FillingsUpdate:  mu: -0.124529199  nElectrons: 117.000000
LCAOMinimize: Iter:   4  F: -541.7737483649452770  |grad|_K:  7.458e-04  alpha:  1.294e-01  linmin:  4.751e-06  cgtest:  1.655e-02  t[s]:      4.98
	FillingsUpdate:  mu: -0.141445769  nElectrons: 117.000000
LCAOMinimize: Iter:   5  F: -541.7772767331562136  |grad|_K:  2.311e-04  alpha:  1.385e-01  linmin: -5.535e-04  cgtest: -2.921e-01  t[s]:      5.71
	FillingsUpdate:  mu: -0.141097714  nElectrons: 117.000000
LCAOMinimize: Iter:   6  F: -541.7777733509863083  |grad|_K:  1.398e-04  alpha:  1.984e-01  linmin: -8.203e-05  cgtest: -1.373e-01  t[s]:      6.43
	FillingsUpdate:  mu: -0.147158776  nElectrons: 117.000000
LCAOMinimize: Iter:   7  F: -541.7778101375738515  |grad|_K:  6.744e-05  alpha:  4.078e-02  linmin: -1.893e-04  cgtest:  4.013e-03  t[s]:      7.15
LCAOMinimize: 	Predicted alpha/alphaT>3.000000, increasing alphaT to 1.223316e-01.
	FillingsUpdate:  mu: -0.142823123  nElectrons: 117.000000
LCAOMinimize: Iter:   8  F: -541.7778508627473002  |grad|_K:  8.856e-06  alpha:  1.950e-01  linmin:  9.532e-05  cgtest: -4.130e-02  t[s]:      8.12
	FillingsUpdate:  mu: -0.143241222  nElectrons: 117.000000
LCAOMinimize: Iter:   9  F: -541.7778515439451894  |grad|_K:  5.973e-06  alpha:  1.898e-01  linmin: -2.393e-05  cgtest:  1.158e-03  t[s]:      8.84
	FillingsUpdate:  mu: -0.142882187  nElectrons: 117.000000
LCAOMinimize: Iter:  10  F: -541.7778516649344738  |grad|_K:  6.504e-06  alpha:  7.449e-02  linmin: -7.734e-06  cgtest: -1.910e-04  t[s]:      9.57
LCAOMinimize: Converged (|Delta F|<1.000000e-06 for 2 iters).


---- Citations for features of the code used in this run ----

   Software package:
      R. Sundararaman, K. Letchworth-Weaver, K.A. Schwarz, D. Gunceler, Y. Ozhabes and T.A. Arias, 'JDFTx: software for joint density-functional theory', SoftwareX 6, 278 (2017)

   gga-PBE exchange-correlation functional:
      J.P. Perdew, K. Burke and M. Ernzerhof, Phys. Rev. Lett. 77, 3865 (1996)

   Pseudopotentials:
      M Schlipf and F Gygi, Comput. Phys. Commun. 196, 36 (2015)

   Truncated Coulomb potentials:
      R. Sundararaman and T.A. Arias, Phys. Rev. B 87, 165122 (2013)

   Total energy minimization with Auxiliary Hamiltonian:
      C. Freysoldt, S. Boeck, and J. Neugebauer, Phys. Rev. B 79, 241103(R) (2009)

   Linear-tetrahedron sampling for density of states:
      G. Lehmann and M. Taut, Phys. status solidi (b) 54, 469 (1972)

This list may not be complete. Please suggest additional citations or
report any other bugs at https://github.com/shankar1729/jdftx/issues

Initialization completed successfully at t[s]:      9.65


-------- Electronic minimization -----------
	FillingsUpdate:  mu: -0.142882187  nElectrons: 117.000000
ElecMinimize: Iter:   0  F: -541.777851664916284  |grad|_K:  4.685e-04  alpha:  1.000e+00
	FillingsUpdate:  mu: -0.129361260  nElectrons: 117.000000
	SubspaceRotationAdjust: set factor to 1
ElecMinimize: Iter:   1  F: -542.552237608064843  |grad|_K:  1.192e-04  alpha:  2.920e-01  linmin:  3.050e-03  t[s]:     11.38
	FillingsUpdate:  mu: -0.162754681  nElectrons: 117.000000
	SubspaceRotationAdjust: set factor to 0.974
ElecMinimize: Iter:   2  F: -542.612279553528310  |grad|_K:  6.464e-05  alpha:  3.503e-01  linmin:  9.731e-06  t[s]:     12.46
	FillingsUpdate:  mu: -0.099537517  nElectrons: 117.000000
	SubspaceRotationAdjust: set factor to 0.661
ElecMinimize: Iter:   3  F: -542.615984663379891  |grad|_K:  7.251e-05  alpha:  7.271e-02  linmin: -3.561e-05  t[s]:     13.53
ElecMinimize: 	Predicted alpha/alphaT>3.000000, increasing alphaT to 2.181440e-01.
	FillingsUpdate:  mu: -0.121971903  nElectrons: 117.000000
	SubspaceRotationAdjust: set factor to 0.656
ElecMinimize: Iter:   4  F: -542.631278968737547  |grad|_K:  4.182e-05  alpha:  2.387e-01  linmin:  8.867e-06  t[s]:     14.95
	FillingsUpdate:  mu: -0.172848157  nElectrons: 117.000000
	SubspaceRotationAdjust: set factor to 0.537
ElecMinimize: Iter:   5  F: -542.644555158457706  |grad|_K:  5.922e-05  alpha:  6.296e-01  linmin:  5.820e-05  t[s]:     16.00
	FillingsUpdate:  mu: -0.116570127  nElectrons: 117.000000
	SubspaceRotationAdjust: set factor to 0.37
ElecMinimize: Iter:   6  F: -542.648250086736311  |grad|_K:  4.611e-05  alpha:  7.925e-02  linmin: -5.918e-04  t[s]:     17.05
ElecMinimize: 	Predicted alpha/alphaT>3.000000, increasing alphaT to 2.377456e-01.
	FillingsUpdate:  mu: -0.080392042  nElectrons: 117.000000

Dumping 'X.fillings' ... done
Dumping 'X.wfns' ... done
Dumping 'X.force' ... done
Dumping 'X.eigenvals' ... done
	SubspaceRotationAdjust: set factor to 0.372
ElecMinimize: Iter:   7  F: -542.657926690727322  |grad|_K:  4.146e-05  alpha:  3.419e-01  linmin:  7.084e-05  t[s]:     18.57
	FillingsUpdate:  mu: -0.124107592  nElectrons: 117.000000
	SubspaceRotationAdjust: set factor to 0.277
ElecMinimize: Iter:   8  F: -542.660708927216547  |grad|_K:  3.638e-05  alpha:  1.306e-01  linmin: -5.384e-04  t[s]:     19.63
	FillingsUpdate:  mu: -0.129116000  nElectrons: 117.000000
	SubspaceRotationAdjust: set factor to 0.404
ElecMinimize: Iter:   9  F: -542.665464518183398  |grad|_K:  2.690e-05  alpha:  2.909e-01  linmin:  4.709e-05  t[s]:     20.70
	FillingsUpdate:  mu: -0.098429956  nElectrons: 117.000000
	SubspaceRotationAdjust: set factor to 0.294
ElecMinimize: Iter:  10  F: -542.666988311485511  |grad|_K:  2.563e-05  alpha:  1.728e-01  linmin: -2.872e-05  t[s]:     21.76
	FillingsUpdate:  mu: -0.120081997  nElectrons: 117.000000
	SubspaceRotationAdjust: set factor to 0.248
ElecMinimize: Iter:  11  F: -542.668832537349772  |grad|_K:  1.549e-05  alpha:  2.314e-01  linmin:  2.032e-05  t[s]:     22.82
	FillingsUpdate:  mu: -0.114577222  nElectrons: 117.000000
	SubspaceRotationAdjust: set factor to 0.259
ElecMinimize: Iter:  12  F: -542.670378486089817  |grad|_K:  1.386e-05  alpha:  5.348e-01  linmin:  9.258e-06  t[s]:     23.87
	FillingsUpdate:  mu: -0.103225765  nElectrons: 117.000000
	SubspaceRotationAdjust: set factor to 0.248
ElecMinimize: Iter:  13  F: -542.671516132170382  |grad|_K:  1.327e-05  alpha:  4.897e-01  linmin:  2.750e-06  t[s]:     24.93
	FillingsUpdate:  mu: -0.122473621  nElectrons: 117.000000
	SubspaceRotationAdjust: set factor to 0.178
ElecMinimize: Iter:  14  F: -542.672124486847565  |grad|_K:  1.358e-05  alpha:  2.839e-01  linmin: -6.053e-06  t[s]:     25.98
	FillingsUpdate:  mu: -0.110495211  nElectrons: 117.000000

Dumping 'X.fillings' ... done
Dumping 'X.wfns' ... done
Dumping 'X.force' ... done
Dumping 'X.eigenvals' ... done
	SubspaceRotationAdjust: set factor to 0.152
ElecMinimize: Iter:  15  F: -542.672801472542687  |grad|_K:  9.202e-06  alpha:  3.028e-01  linmin:  1.149e-05  t[s]:     27.19
	FillingsUpdate:  mu: -0.109411231  nElectrons: 117.000000
	SubspaceRotationAdjust: set factor to 0.167
ElecMinimize: Iter:  16  F: -542.673253702066518  |grad|_K:  7.405e-06  alpha:  4.424e-01  linmin:  3.969e-06  t[s]:     28.25
	FillingsUpdate:  mu: -0.119267677  nElectrons: 117.000000
	SubspaceRotationAdjust: set factor to 0.136
ElecMinimize: Iter:  17  F: -542.673504207783708  |grad|_K:  6.445e-06  alpha:  3.772e-01  linmin:  7.464e-06  t[s]:     29.30
	FillingsUpdate:  mu: -0.112450042  nElectrons: 117.000000
	SubspaceRotationAdjust: set factor to 0.12
	SubspaceRotationAdjust: resetting CG because factor has changed by 0.119637
ElecMinimize: 	State modified externally: resetting search direction.
ElecMinimize: Iter:  18  F: -542.673714513795630  |grad|_K:  5.729e-06  alpha:  4.185e-01
	FillingsUpdate:  mu: -0.116020169  nElectrons: 117.000000
	SubspaceRotationAdjust: set factor to 0.166
ElecMinimize: Iter:  19  F: -542.673837942991781  |grad|_K:  3.714e-06  alpha:  3.105e-01  linmin:  3.897e-07  t[s]:     31.99
	FillingsUpdate:  mu: -0.112874006  nElectrons: 117.000000
	SubspaceRotationAdjust: set factor to 0.164
ElecMinimize: Iter:  20  F: -542.673952100637734  |grad|_K:  3.924e-06  alpha:  6.833e-01  linmin:  2.666e-06  t[s]:     33.05
	FillingsUpdate:  mu: -0.115389264  nElectrons: 117.000000
	SubspaceRotationAdjust: set factor to 0.16
ElecMinimize: Iter:  21  F: -542.674083175653323  |grad|_K:  4.181e-06  alpha:  7.030e-01  linmin:  2.213e-06  t[s]:     34.10
	FillingsUpdate:  mu: -0.111426830  nElectrons: 117.000000
	SubspaceRotationAdjust: set factor to 0.147
ElecMinimize: Iter:  22  F: -542.674202565564315  |grad|_K:  3.783e-06  alpha:  5.637e-01  linmin:  2.237e-06  t[s]:     35.15
	FillingsUpdate:  mu: -0.116428064  nElectrons: 117.000000

Dumping 'X.fillings' ... done
Dumping 'X.wfns' ... done
Dumping 'X.force' ... done
Dumping 'X.eigenvals' ... done
	SubspaceRotationAdjust: set factor to 0.121
ElecMinimize: Iter:  23  F: -542.674283542198168  |grad|_K:  3.275e-06  alpha:  4.671e-01  linmin:  3.091e-06  t[s]:     36.32
	FillingsUpdate:  mu: -0.113578037  nElectrons: 117.000000
	SubspaceRotationAdjust: set factor to 0.0995
ElecMinimize: Iter:  24  F: -542.674345017146152  |grad|_K:  2.624e-06  alpha:  4.734e-01  linmin:  6.711e-06  t[s]:     37.37
	FillingsUpdate:  mu: -0.115760381  nElectrons: 117.000000
	SubspaceRotationAdjust: set factor to 0.097
ElecMinimize: Iter:  25  F: -542.674398800146264  |grad|_K:  2.663e-06  alpha:  6.466e-01  linmin:  9.910e-06  t[s]:     38.43
	FillingsUpdate:  mu: -0.115528887  nElectrons: 117.000000
	SubspaceRotationAdjust: set factor to 0.1
ElecMinimize: Iter:  26  F: -542.674443168175458  |grad|_K:  2.412e-06  alpha:  5.173e-01  linmin:  2.985e-06  t[s]:     39.49
	FillingsUpdate:  mu: -0.114093211  nElectrons: 117.000000
	SubspaceRotationAdjust: set factor to 0.0978
ElecMinimize: Iter:  27  F: -542.674475797630294  |grad|_K:  1.983e-06  alpha:  4.634e-01  linmin:  5.105e-06  t[s]:     40.54
	FillingsUpdate:  mu: -0.114947773  nElectrons: 117.000000
	SubspaceRotationAdjust: set factor to 0.0978
ElecMinimize: Iter:  28  F: -542.674501839030768  |grad|_K:  1.676e-06  alpha:  5.472e-01  linmin:  1.541e-05  t[s]:     41.61
	FillingsUpdate:  mu: -0.114812902  nElectrons: 117.000000
	SubspaceRotationAdjust: set factor to 0.101
ElecMinimize: Iter:  29  F: -542.674520063031991  |grad|_K:  1.441e-06  alpha:  5.363e-01  linmin:  1.119e-05  t[s]:     42.67
	FillingsUpdate:  mu: -0.114534062  nElectrons: 117.000000
	SubspaceRotationAdjust: set factor to 0.103
ElecMinimize: Iter:  30  F: -542.674533327226413  |grad|_K:  1.389e-06  alpha:  5.275e-01  linmin:  4.543e-06  t[s]:     43.73
	FillingsUpdate:  mu: -0.115015867  nElectrons: 117.000000

Dumping 'X.fillings' ... done
Dumping 'X.wfns' ... done
Dumping 'X.force' ... done
Dumping 'X.eigenvals' ... done
	SubspaceRotationAdjust: set factor to 0.105
ElecMinimize: Iter:  31  F: -542.674546540959682  |grad|_K:  1.344e-06  alpha:  5.655e-01  linmin:  5.616e-06  t[s]:     44.95
	FillingsUpdate:  mu: -0.114872296  nElectrons: 117.000000
	SubspaceRotationAdjust: set factor to 0.109
ElecMinimize: Iter:  32  F: -542.674558877766117  |grad|_K:  1.145e-06  alpha:  5.638e-01  linmin:  3.785e-06  t[s]:     46.01
	FillingsUpdate:  mu: -0.114777182  nElectrons: 117.000000
	SubspaceRotationAdjust: set factor to 0.117
ElecMinimize: Iter:  33  F: -542.674565608500984  |grad|_K:  8.021e-07  alpha:  4.240e-01  linmin:  3.602e-07  t[s]:     47.07
	FillingsUpdate:  mu: -0.114918997  nElectrons: 117.000000
	SubspaceRotationAdjust: set factor to 0.125
ElecMinimize: Iter:  34  F: -542.674569335246815  |grad|_K:  7.184e-07  alpha:  4.782e-01  linmin:  4.860e-07  t[s]:     48.13
	FillingsUpdate:  mu: -0.114433073  nElectrons: 117.000000
	SubspaceRotationAdjust: set factor to 0.128
ElecMinimize: Iter:  35  F: -542.674573873257600  |grad|_K:  8.035e-07  alpha:  7.262e-01  linmin:  1.093e-06  t[s]:     49.19
	FillingsUpdate:  mu: -0.114537198  nElectrons: 117.000000
	SubspaceRotationAdjust: set factor to 0.132
ElecMinimize: Iter:  36  F: -542.674577623114374  |grad|_K:  7.072e-07  alpha:  4.795e-01  linmin:  1.286e-07  t[s]:     50.25
	FillingsUpdate:  mu: -0.114684379  nElectrons: 117.000000
	SubspaceRotationAdjust: set factor to 0.136
ElecMinimize: Iter:  37  F: -542.674581352647010  |grad|_K:  6.834e-07  alpha:  6.156e-01  linmin:  5.581e-07  t[s]:     51.31
	FillingsUpdate:  mu: -0.114386901  nElectrons: 117.000000
	SubspaceRotationAdjust: set factor to 0.133
ElecMinimize: Iter:  38  F: -542.674584213984986  |grad|_K:  5.998e-07  alpha:  5.059e-01  linmin:  8.879e-07  t[s]:     52.36
	FillingsUpdate:  mu: -0.114922818  nElectrons: 117.000000

Dumping 'X.fillings' ... done
Dumping 'X.wfns' ... done
Dumping 'X.force' ... done
Dumping 'X.eigenvals' ... done
	SubspaceRotationAdjust: set factor to 0.126
ElecMinimize: Iter:  39  F: -542.674586574283239  |grad|_K:  5.653e-07  alpha:  5.417e-01  linmin:  9.742e-07  t[s]:     53.53
	FillingsUpdate:  mu: -0.114747185  nElectrons: 117.000000
	SubspaceRotationAdjust: set factor to 0.126
ElecMinimize: Iter:  40  F: -542.674588675129144  |grad|_K:  5.299e-07  alpha:  5.429e-01  linmin:  5.285e-08  t[s]:     54.59
	FillingsUpdate:  mu: -0.114778965  nElectrons: 117.000000
	SubspaceRotationAdjust: set factor to 0.132
ElecMinimize: Iter:  41  F: -542.674590513598446  |grad|_K:  4.569e-07  alpha:  5.406e-01  linmin:  3.185e-08  t[s]:     55.66
	FillingsUpdate:  mu: -0.114874386  nElectrons: 117.000000
	SubspaceRotationAdjust: set factor to 0.137
ElecMinimize: Iter:  42  F: -542.674591771989640  |grad|_K:  4.161e-07  alpha:  4.976e-01  linmin:  7.200e-07  t[s]:     56.75
	FillingsUpdate:  mu: -0.114605629  nElectrons: 117.000000
	SubspaceRotationAdjust: set factor to 0.141
ElecMinimize: Iter:  43  F: -542.674592932325822  |grad|_K:  3.836e-07  alpha:  5.534e-01  linmin:  8.014e-06  t[s]:     57.81
	FillingsUpdate:  mu: -0.114824544  nElectrons: 117.000000
	SubspaceRotationAdjust: set factor to 0.146
ElecMinimize: Iter:  44  F: -542.674593905763231  |grad|_K:  3.772e-07  alpha:  5.465e-01  linmin:  1.735e-06  t[s]:     58.88
	FillingsUpdate:  mu: -0.114645362  nElectrons: 117.000000
	SubspaceRotationAdjust: set factor to 0.149
ElecMinimize: Iter:  45  F: -542.674594991617596  |grad|_K:  4.094e-07  alpha:  6.304e-01  linmin:  2.413e-07  t[s]:     59.94
	FillingsUpdate:  mu: -0.114813666  nElectrons: 117.000000
	SubspaceRotationAdjust: set factor to 0.153
ElecMinimize: Iter:  46  F: -542.674596173455370  |grad|_K:  3.878e-07  alpha:  5.821e-01  linmin:  1.539e-06  t[s]:     61.00
	FillingsUpdate:  mu: -0.114802632  nElectrons: 117.000000

Dumping 'X.fillings' ... done
Dumping 'X.wfns' ... done
Dumping 'X.force' ... done
Dumping 'X.eigenvals' ... done
	SubspaceRotationAdjust: set factor to 0.159
ElecMinimize: Iter:  47  F: -542.674597085652522  |grad|_K:  3.166e-07  alpha:  5.011e-01  linmin: -7.467e-08  t[s]:     62.18
	FillingsUpdate:  mu: -0.114650572  nElectrons: 117.000000
	SubspaceRotationAdjust: set factor to 0.161
ElecMinimize: Iter:  48  F: -542.674597685694948  |grad|_K:  2.754e-07  alpha:  4.940e-01  linmin:  1.550e-06  t[s]:     63.25
ElecMinimize: Converged (|Delta F|<1.000000e-06 for 2 iters).
Setting wave functions to eigenvectors of Hamiltonian

# Ionic positions in lattice coordinates:
ion Na   0.000000000000000   0.000000000000000   0.243900000000000 1
ion Na   0.500000000000000   0.500000000000000   0.286590000000000 1
ion Na   0.000000000000000   0.000000000000000   0.329270000000000 1
ion Na   0.500000000000000   0.500000000000000   0.371950000000000 1
ion Na   0.000000000000000   0.000000000000000   0.414630000000000 1
ion Na   0.500000000000000   0.500000000000000   0.457320000000000 1
ion Na   0.000000000000000   0.000000000000000   0.500000000000000 1
ion Na   0.500000000000000   0.500000000000000   0.542680000000000 1
ion Na   0.000000000000000   0.000000000000000   0.585370000000000 1
ion Na   0.500000000000000   0.500000000000000   0.628050000000000 1
ion Na   0.000000000000000   0.000000000000000   0.670730000000000 1
ion Na   0.500000000000000   0.500000000000000   0.713410000000000 1
ion Na   0.000000000000000   0.000000000000000   0.756100000000000 1

# Forces in Lattice coordinates:
force Na  -0.000000000000000   0.000000000000000   0.070375691970336 1
force Na   0.000000000000000   0.000000000000000   0.040432800135547 1
force Na   0.000000000000000   0.000000000000000   0.019160540993298 1
force Na   0.000000000000000   0.000000000000000  -0.000449480977622 1
force Na  -0.000000000000000   0.000000000000000  -0.022355915860733 1
force Na   0.000000000000000  -0.000000000000000  -0.018202030703318 1
force Na   0.000000000000000   0.000000000000000   0.000000000000000 1
force Na   0.000000000000000   0.000000000000000   0.018202030703318 1
force Na   0.000000000000000   0.000000000000000   0.022355915860733 1
force Na  -0.000000000000000   0.000000000000000   0.000449480977622 1
force Na   0.000000000000000  -0.000000000000000  -0.019160540993298 1
force Na   0.000000000000000   0.000000000000000  -0.040432800136456 1
force Na  -0.000000000000000   0.000000000000000  -0.070375691970337 1

# Energy components:
   Eewald =   -11945.6313197421186487
       EH =   -11525.2311667269859754
     Eloc =    22897.5810258044803049
      Enl =     -150.1303818805783408
   Epulay =       -0.0069745606973973
      Exc =      -77.7060197099551004
       KE =      258.4978801784413349
-------------------------------------
     Etot =     -542.6269566374137412
       TS =        0.0476410482812162
-------------------------------------
        F =     -542.6745976856949483

IonicMinimize: Iter:   0  F: -542.674597685694948  |grad|_K:  2.149e-04  t[s]:     63.45
IonicMinimize: None of the convergence criteria satisfied after 0 iterations.

#--- Lowdin population analysis ---
# oxidation-state Na +0.070 +0.046 +0.038 +0.049 +0.045 +0.046 +0.048 +0.046 +0.045 +0.049 +0.038 +0.046 +0.070


Dumping 'X.fillings' ... done
Dumping 'X.wfns' ... done
Dumping 'X.ionpos' ... done
Dumping 'X.lattice' ... done
Dumping 'X.n' ... done
Dumping 'X.eigenvals' ... done
Dumping 'X.eigStats' ... 
	eMin: -2.308943 at state 1 ( [ +0.000000 +0.090909 +0.000000 ] spin 0 )
	HOMO: -0.115399 at state 11 ( [ +0.181818 +0.181818 +0.000000 ] spin 0 )
	mu  : -0.114651
	LUMO: -0.114380 at state 19 ( [ +0.363636 +0.454545 +0.000000 ] spin 0 )
	eMax: -0.007702 at state 11 ( [ +0.181818 +0.181818 +0.000000 ] spin 0 )
	HOMO-LUMO gap: +0.001019
	Optical gap  : +0.003810 at state 5 ( [ +0.000000 +0.454545 +0.000000 ] spin 0 )
Dumping 'X.dos' ... done.
End date and time: Thu Nov  9 00:35:31 2023  (Duration: 0-0:01:03.66)
Done!

*************** JDFTx 1.7.0  ***************

Start date and time: Thu Nov  9 00:35:33 2023
Executable jdftx with command-line: -m -i X.in -o X.out
Running on hosts (process indices):  ac0015 (0-20)
Divided in process groups (process indices):  0 (0)  1 (1)  2 (2)  3 (3)  4 (4)  5 (5)  6 (6)  7 (7)  8 (8)  9 (9)  10 (10)  11 (11)  12 (12)  13 (13)  14 (14)  15 (15)  16 (16)  17 (17)  18 (18)  19 (19)  20 (20)
Resource initialization completed at t[s]:      0.01
Run totals: 21 processes, 21 threads, 0 GPUs


Input parsed successfully to the following command list (including defaults):

basis kpoint-dependent
cache-projectors no
coords-type Lattice
core-overlap-check vector
coulomb-interaction Slab 001
coulomb-truncation-embed 0 0 0.5
davidson-band-ratio 1.1
density-of-states Etol 1.000000e-06 Esigma 0.000000e+00 \
		Complete \
	Total \
		Occupied \
	Total
dump End State IonicPositions Lattice ElecDensity CoreDensity EigStats DOS
dump Electronic State Forces
dump Ionic State IonicPositions Forces Lattice DOS
dump-interval Electronic 8
dump-interval Ionic 4
dump-name X.$var
elec-cutoff 20
elec-eigen-algo Davidson
elec-ex-corr gga-PBE
elec-smearing Fermi 0.0095
electronic-minimize  \
	dirUpdateScheme      FletcherReeves \
	linminMethod         DirUpdateRecommended \
	nIterations          2000 \
	history              15 \
	knormThreshold       0 \
	energyDiffThreshold  1e-07 \
	nEnergyDiff          2 \
	alphaTstart          1 \
	alphaTmin            1e-10 \
	updateTestStepSize   yes \
	alphaTreduceFactor   0.1 \
	alphaTincreaseFactor 3 \
	nAlphaAdjustMax      3 \
	wolfeEnergy          0.0001 \
	wolfeGradient        0.9 \
	fdTest               no
exchange-regularization WignerSeitzTruncated
fluid None
fluid-ex-corr (null) lda-PZ
fluid-gummel-loop 10 1.000000e-05
fluid-minimize  \
	dirUpdateScheme      PolakRibiere \
	linminMethod         DirUpdateRecommended \
	nIterations          100 \
	history              15 \
	knormThreshold       0 \
	energyDiffThreshold  0 \
	nEnergyDiff          2 \
	alphaTstart          1 \
	alphaTmin            1e-10 \
	updateTestStepSize   yes \
	alphaTreduceFactor   0.1 \
	alphaTincreaseFactor 3 \
	nAlphaAdjustMax      3 \
	wolfeEnergy          0.0001 \
	wolfeGradient        0.9 \
	fdTest               no
fluid-solvent H2O 55.338 ScalarEOS \
	epsBulk 78.4 \
	pMol 0.92466 \
	epsInf 1.77 \
	Pvap 1.06736e-10 \
	sigmaBulk 4.62e-05 \
	Rvdw 2.61727 \
	Res 1.42 \
	tauNuc 343133 \
	poleEl 15 7 1
forces-output-coords Positions
ion Na   0.000000000000000   0.000000000000000   0.243900000000000 1
ion Na   0.500000000000000   0.500000000000000   0.286590000000000 1
ion Na   0.000000000000000   0.000000000000000   0.329270000000000 1
ion Na   0.500000000000000   0.500000000000000   0.371950000000000 1
ion Na   0.000000000000000   0.000000000000000   0.414630000000000 1
ion Na   0.500000000000000   0.500000000000000   0.457320000000000 1
ion Na   0.000000000000000   0.000000000000000   0.500000000000000 1
ion Na   0.500000000000000   0.500000000000000   0.542680000000000 1
ion Na   0.000000000000000   0.000000000000000   0.585370000000000 1
ion Na   0.500000000000000   0.500000000000000   0.628050000000000 1
ion Na   0.000000000000000   0.000000000000000   0.670730000000000 1
ion Na   0.500000000000000   0.500000000000000   0.713410000000000 1
ion Na   0.000000000000000   0.000000000000000   0.756100000000000 1
ion-species SG15/$ID_ONCV_PBE.upf
ion-width 0
ionic-minimize  \
	dirUpdateScheme      L-BFGS \
	linminMethod         DirUpdateRecommended \
	nIterations          0 \
	history              15 \
	knormThreshold       0.0001 \
	energyDiffThreshold  1e-06 \
	nEnergyDiff          2 \
	alphaTstart          1 \
	alphaTmin            1e-10 \
	updateTestStepSize   yes \
	alphaTreduceFactor   0.1 \
	alphaTincreaseFactor 3 \
	nAlphaAdjustMax      3 \
	wolfeEnergy          0.0001 \
	wolfeGradient        0.9 \
	fdTest               no
kpoint   0.000000000000   0.000000000000   0.000000000000  1.00000000000000
kpoint-folding 11 11 1 
latt-move-scale 1 1 1
latt-scale 1 1 1 
lattice  \
	   7.936714821600003   -0.000000000000000   -0.000000000000000  \
	   0.000000000000000    7.936714821600003   -0.000000000000000  \
	   0.000000000000000    0.000000000000000   92.973771134999993 
lattice-minimize  \
	dirUpdateScheme      L-BFGS \
	linminMethod         DirUpdateRecommended \
	nIterations          0 \
	history              15 \
	knormThreshold       0 \
	energyDiffThreshold  1e-06 \
	nEnergyDiff          2 \
	alphaTstart          1 \
	alphaTmin            1e-10 \
	updateTestStepSize   yes \
	alphaTreduceFactor   0.1 \
	alphaTincreaseFactor 3 \
	nAlphaAdjustMax      3 \
	wolfeEnergy          0.0001 \
	wolfeGradient        0.9 \
	fdTest               no
lcao-params -1 1e-06 0.0095
pcm-variant GLSSA13
spintype no-spin
subspace-rotation-factor 1 yes
symmetries automatic
symmetry-threshold 0.0001
wavefunction read X.wfns 65 10.000000



---------- Setting up symmetries ----------

Found 16 point-group symmetries of the bravais lattice
Found 16 space-group symmetries with basis
Applied RMS atom displacement 0 bohrs to make symmetries exact.

---------- Initializing the Grid ----------
R = 
[      7.93671            0            0  ]
[            0      7.93671            0  ]
[            0            0      92.9738  ]
unit cell volume = 5856.55
G =
[   0.791661          0          0  ]
[         -0   0.791661          0  ]
[          0         -0  0.0675802  ]
Minimum fftbox size, Smin = [  32  32  376  ]
Chosen fftbox size, S = [  32  32  378  ]

---------- Exchange Correlation functional ----------
Initalized PBE GGA exchange.
Initalized PBE GGA correlation.

---------- Setting up pseudopotentials ----------
Width of ionic core gaussian charges (only for fluid interactions / plotting) set to 0

Reading pseudopotential file '/net/software/testing/software/jdftx/1.7.0-foss-2021b-mkl/share/jdftx/pseudopotentials/SG15/Na_ONCV_PBE.upf':
  'Na' pseudopotential, 'PBE' functional
  Generated using ONCVPSP code by D. R. Hamann
  Author: Martin Schlipf and Francois Gygi  Date: 150915.
  9 valence electrons, 3 orbitals, 4 projectors, 1992 radial grid points, with lMax = 1
  Transforming local potential to a uniform radial grid of dG=0.02 with 1106 points.
  Transforming nonlocal projectors to a uniform radial grid of dG=0.02 with 432 points.
    2S    l: 0   occupation:  2.0   eigenvalue: -2.085640
    2P    l: 1   occupation:  6.0   eigenvalue: -1.053708
    3S    l: 0   occupation:  1.0   eigenvalue: -0.100838
  Transforming atomic orbitals to a uniform radial grid of dG=0.02 with 432 points.
  Core radius for overlap checks: 2.01 bohrs.
  Reading pulay file /net/software/testing/software/jdftx/1.7.0-foss-2021b-mkl/share/jdftx/pseudopotentials/SG15/Na_ONCV_PBE.pulay ... using dE_dnG = -2.946487e-03 computed for Ecut = 20.

Initialized 1 species with 13 total atoms.

Folded 1 k-points by 11x11x1 to 121 k-points.

---------- Setting up k-points, bands, fillings ----------
Reduced to 21 k-points under symmetry. 
Computing the number of bands and number of electrons
Calculating initial fillings.
nElectrons: 117.000000   nBands: 65   nStates: 21

----- Setting up reduced wavefunction bases (one per k-point) -----
average nbasis = 25021.413 , ideal nbasis = 25019.636

----- Initializing Supercell corresponding to k-point mesh -----
Lattice vector linear combinations in supercell:
[  11   0   0  ]
[   0  11   0  ]
[   0   0   1  ]
Supercell lattice vectors:
[  87.3039  0  0  ]
[  0  87.3039  0  ]
[  0  0  92.9738  ]

---------- Setting up coulomb interaction ----------
Setting up double-sized grid for truncated Coulomb potentials:
R = 
[      7.93671            0            0  ]
[            0      7.93671            0  ]
[            0            0      185.948  ]
unit cell volume = 11713.1
G =
[   0.791661          0          0  ]
[         -0   0.791661          0  ]
[          0         -0  0.0337901  ]
Chosen fftbox size, S = [  32  32  756  ]
Integer grid location selected as the embedding center:
   Grid: [  0  0  189  ]
   Lattice: [  0  0  0.5  ]
   Cartesian: [  0  0  46.4869  ]
Constructing Wigner-Seitz cell: 6 faces (6 quadrilaterals, 0 hexagons)
Range-separation parameter for embedded mesh potentials due to point charges: 0.628283 bohrs.
Initialized slab truncation along lattice direction 001

---------- Setting up 2D ewald sum ----------
Optimum gaussian width for ewald sums = 4.734710 bohr.
Real space sums over 225 unit cells with max indices [  7  7  0  ]
Reciprocal space sums over 81 terms with max indices [  4  4  0  ]

---------- Allocating electronic variables ----------
Initializing wave functions:  reading from 'X.wfns'


---- Citations for features of the code used in this run ----

   Software package:
      R. Sundararaman, K. Letchworth-Weaver, K.A. Schwarz, D. Gunceler, Y. Ozhabes and T.A. Arias, 'JDFTx: software for joint density-functional theory', SoftwareX 6, 278 (2017)

   gga-PBE exchange-correlation functional:
      J.P. Perdew, K. Burke and M. Ernzerhof, Phys. Rev. Lett. 77, 3865 (1996)

   Pseudopotentials:
      M Schlipf and F Gygi, Comput. Phys. Commun. 196, 36 (2015)

   Truncated Coulomb potentials:
      R. Sundararaman and T.A. Arias, Phys. Rev. B 87, 165122 (2013)

   Total energy minimization with Auxiliary Hamiltonian:
      C. Freysoldt, S. Boeck, and J. Neugebauer, Phys. Rev. B 79, 241103(R) (2009)

   Linear-tetrahedron sampling for density of states:
      G. Lehmann and M. Taut, Phys. status solidi (b) 54, 469 (1972)

This list may not be complete. Please suggest additional citations or
report any other bugs at https://github.com/shankar1729/jdftx/issues

Initialization completed successfully at t[s]:      0.72


Setting the auxilliary hamiltonian equal to the subspace hamiltonian.

-------- Electronic minimization -----------
	FillingsUpdate:  mu: -0.086971637  nElectrons: 117.000000
ElecMinimize: Iter:   0  F: -542.642296146014246  |grad|_K:  1.083e-03  alpha:  1.000e+00
	FillingsUpdate:  mu: -0.393224198  nElectrons: 117.000000
	SubspaceRotationAdjust: set factor to 0.948
ElecMinimize: Iter:   1  F: -552.616551879441545  |grad|_K:  4.180e-04  alpha:  2.713e-01  linmin:  1.216e-02  t[s]:      9.53
	FillingsUpdate:  mu: +0.259119560  nElectrons: 117.000000
	SubspaceRotationAdjust: set factor to 0.6
ElecMinimize: Iter:   2  F: -552.964486630175088  |grad|_K:  4.063e-04  alpha:  6.864e-02  linmin:  6.673e-04  t[s]:     13.55
	FillingsUpdate:  mu: -0.047370207  nElectrons: 117.000000
	SubspaceRotationAdjust: set factor to 1.28
ElecMinimize: Iter:   3  F: -553.691120689493687  |grad|_K:  8.370e-05  alpha:  1.406e-01  linmin:  1.043e-03  t[s]:     17.54
	FillingsUpdate:  mu: -0.199009504  nElectrons: 117.000000
	SubspaceRotationAdjust: set factor to 0.752
ElecMinimize: Iter:   4  F: -553.719961235637356  |grad|_K:  1.177e-04  alpha:  1.214e-01  linmin:  1.860e-04  t[s]:     21.53
	FillingsUpdate:  mu: -0.070874472  nElectrons: 117.000000
	SubspaceRotationAdjust: set factor to 0.297
ElecMinimize: Iter:   5  F: -553.748478149092534  |grad|_K:  3.480e-05  alpha:  5.884e-02  linmin: -3.939e-04  t[s]:     25.51
	FillingsUpdate:  mu: -0.138256711  nElectrons: 117.000000
	SubspaceRotationAdjust: set factor to 0.155
ElecMinimize: Iter:   6  F: -553.753172930391088  |grad|_K:  2.808e-05  alpha:  1.133e-01  linmin:  3.370e-04  t[s]:     29.50
	FillingsUpdate:  mu: -0.122482167  nElectrons: 117.000000

Dumping 'X.fillings' ... done
Dumping 'X.wfns' ... done
Dumping 'X.force' ... done
Dumping 'X.eigenvals' ... done
	SubspaceRotationAdjust: set factor to 0.266
ElecMinimize: Iter:   7  F: -553.759765767064096  |grad|_K:  1.791e-05  alpha:  2.545e-01  linmin:  4.370e-05  t[s]:     33.78
	FillingsUpdate:  mu: -0.078237564  nElectrons: 117.000000
	SubspaceRotationAdjust: set factor to 0.208
ElecMinimize: Iter:   8  F: -553.762633174682833  |grad|_K:  1.648e-05  alpha:  2.633e-01  linmin:  1.246e-04  t[s]:     37.86
	FillingsUpdate:  mu: -0.106265125  nElectrons: 117.000000
	SubspaceRotationAdjust: set factor to 0.176
ElecMinimize: Iter:   9  F: -553.765040022396988  |grad|_K:  1.159e-05  alpha:  2.629e-01  linmin:  5.405e-05  t[s]:     41.88
	FillingsUpdate:  mu: -0.108117246  nElectrons: 117.000000
	SubspaceRotationAdjust: set factor to 0.205
ElecMinimize: Iter:  10  F: -553.767272145259881  |grad|_K:  9.329e-06  alpha:  4.925e-01  linmin:  4.741e-05  t[s]:     45.91
	FillingsUpdate:  mu: -0.089364860  nElectrons: 117.000000
	SubspaceRotationAdjust: set factor to 0.161
ElecMinimize: Iter:  11  F: -553.768280012285004  |grad|_K:  7.880e-06  alpha:  3.398e-01  linmin:  4.769e-06  t[s]:     49.94
	FillingsUpdate:  mu: -0.105845286  nElectrons: 117.000000
	SubspaceRotationAdjust: set factor to 0.103
	SubspaceRotationAdjust: resetting CG because factor has changed by 0.10297
ElecMinimize: 	State modified externally: resetting search direction.
ElecMinimize: Iter:  12  F: -553.768784315436392  |grad|_K:  4.810e-06  alpha:  2.367e-01
	FillingsUpdate:  mu: -0.099065901  nElectrons: 117.000000
	SubspaceRotationAdjust: set factor to 0.181
ElecMinimize: Iter:  13  F: -553.769024679303357  |grad|_K:  2.995e-06  alpha:  3.040e-01  linmin: -3.933e-07  t[s]:     60.32
	FillingsUpdate:  mu: -0.099988109  nElectrons: 117.000000
	SubspaceRotationAdjust: set factor to 0.19
ElecMinimize: Iter:  14  F: -553.769195628222178  |grad|_K:  2.848e-06  alpha:  5.577e-01  linmin: -1.457e-05  t[s]:     64.32
	FillingsUpdate:  mu: -0.105487940  nElectrons: 117.000000

Dumping 'X.fillings' ... done
Dumping 'X.wfns' ... done
Dumping 'X.force' ... done
Dumping 'X.eigenvals' ... done
	SubspaceRotationAdjust: set factor to 0.176
ElecMinimize: Iter:  15  F: -553.769353443101863  |grad|_K:  3.289e-06  alpha:  5.689e-01  linmin:  1.264e-05  t[s]:     68.65
	FillingsUpdate:  mu: -0.096585972  nElectrons: 117.000000
	SubspaceRotationAdjust: set factor to 0.122
ElecMinimize: Iter:  16  F: -553.769482757303308  |grad|_K:  3.244e-06  alpha:  3.493e-01  linmin: -7.903e-06  t[s]:     72.66
	FillingsUpdate:  mu: -0.101156213  nElectrons: 117.000000
	SubspaceRotationAdjust: set factor to 0.119
ElecMinimize: Iter:  17  F: -553.769626190271197  |grad|_K:  2.418e-06  alpha:  3.987e-01  linmin:  1.483e-05  t[s]:     76.66
	FillingsUpdate:  mu: -0.103119641  nElectrons: 117.000000
	SubspaceRotationAdjust: set factor to 0.121
ElecMinimize: Iter:  18  F: -553.769705662654815  |grad|_K:  2.069e-06  alpha:  3.982e-01  linmin:  5.606e-06  t[s]:     80.66
	FillingsUpdate:  mu: -0.098520708  nElectrons: 117.000000
	SubspaceRotationAdjust: set factor to 0.0992
ElecMinimize: Iter:  19  F: -553.769783059187375  |grad|_K:  1.919e-06  alpha:  5.292e-01  linmin:  2.233e-05  t[s]:     84.72
	FillingsUpdate:  mu: -0.101461739  nElectrons: 117.000000
	SubspaceRotationAdjust: set factor to 0.0939
ElecMinimize: Iter:  20  F: -553.769828504690622  |grad|_K:  1.155e-06  alpha:  3.614e-01  linmin:  1.414e-06  t[s]:     88.73
	FillingsUpdate:  mu: -0.102223049  nElectrons: 117.000000
	SubspaceRotationAdjust: set factor to 0.0964
ElecMinimize: Iter:  21  F: -553.769846989781740  |grad|_K:  1.061e-06  alpha:  4.053e-01  linmin:  2.661e-06  t[s]:     92.74
	FillingsUpdate:  mu: -0.100835852  nElectrons: 117.000000
	SubspaceRotationAdjust: set factor to 0.0909
ElecMinimize: Iter:  22  F: -553.769867243973636  |grad|_K:  9.409e-07  alpha:  5.263e-01  linmin:  1.024e-05  t[s]:     96.74
	FillingsUpdate:  mu: -0.101367600  nElectrons: 117.000000

Dumping 'X.fillings' ... done
Dumping 'X.wfns' ... done
Dumping 'X.force' ... done
Dumping 'X.eigenvals' ... done
	SubspaceRotationAdjust: set factor to 0.0923
ElecMinimize: Iter:  23  F: -553.769883828454795  |grad|_K:  9.147e-07  alpha:  5.483e-01  linmin:  9.921e-06  t[s]:    101.09
	FillingsUpdate:  mu: -0.101902681  nElectrons: 117.000000
	SubspaceRotationAdjust: set factor to 0.0923
ElecMinimize: Iter:  24  F: -553.769897702349908  |grad|_K:  8.733e-07  alpha:  4.852e-01  linmin:  7.070e-06  t[s]:    105.09
	FillingsUpdate:  mu: -0.101320523  nElectrons: 117.000000
	SubspaceRotationAdjust: set factor to 0.0921
ElecMinimize: Iter:  25  F: -553.769911195236773  |grad|_K:  8.350e-07  alpha:  5.177e-01  linmin:  8.588e-06  t[s]:    109.10
	FillingsUpdate:  mu: -0.101299803  nElectrons: 117.000000
	SubspaceRotationAdjust: set factor to 0.0932
ElecMinimize: Iter:  26  F: -553.769923580229829  |grad|_K:  7.502e-07  alpha:  5.198e-01  linmin:  6.753e-06  t[s]:    113.13
	FillingsUpdate:  mu: -0.101515514  nElectrons: 117.000000
	SubspaceRotationAdjust: set factor to 0.0938
ElecMinimize: Iter:  27  F: -553.769932470453227  |grad|_K:  6.254e-07  alpha:  4.623e-01  linmin:  7.122e-06  t[s]:    117.14
	FillingsUpdate:  mu: -0.101251594  nElectrons: 117.000000
	SubspaceRotationAdjust: set factor to 0.0949
ElecMinimize: Iter:  28  F: -553.769938050791325  |grad|_K:  5.210e-07  alpha:  4.174e-01  linmin:  3.743e-06  t[s]:    121.14
	FillingsUpdate:  mu: -0.101197692  nElectrons: 117.000000
	SubspaceRotationAdjust: set factor to 0.0963
ElecMinimize: Iter:  29  F: -553.769943233344065  |grad|_K:  5.247e-07  alpha:  5.585e-01  linmin: -1.513e-06  t[s]:    125.16
	FillingsUpdate:  mu: -0.101384386  nElectrons: 117.000000
	SubspaceRotationAdjust: set factor to 0.0968
ElecMinimize: Iter:  30  F: -553.769948577838818  |grad|_K:  5.526e-07  alpha:  5.679e-01  linmin:  2.389e-06  t[s]:    129.15
	FillingsUpdate:  mu: -0.101210903  nElectrons: 117.000000

Dumping 'X.fillings' ... done
Dumping 'X.wfns' ... done
Dumping 'X.force' ... done
Dumping 'X.eigenvals' ... done
	SubspaceRotationAdjust: set factor to 0.0975
ElecMinimize: Iter:  31  F: -553.769953662647936  |grad|_K:  4.949e-07  alpha:  4.872e-01  linmin:  2.823e-06  t[s]:    133.44
	FillingsUpdate:  mu: -0.101182285  nElectrons: 117.000000
	SubspaceRotationAdjust: set factor to 0.0983
ElecMinimize: Iter:  32  F: -553.769958277213618  |grad|_K:  5.242e-07  alpha:  5.513e-01  linmin:  6.112e-06  t[s]:    137.43
	FillingsUpdate:  mu: -0.101364653  nElectrons: 117.000000
	SubspaceRotationAdjust: set factor to 0.0986
ElecMinimize: Iter:  33  F: -553.769963463023828  |grad|_K:  4.812e-07  alpha:  5.524e-01  linmin:  9.991e-06  t[s]:    141.43
	FillingsUpdate:  mu: -0.101195270  nElectrons: 117.000000
	SubspaceRotationAdjust: set factor to 0.0988
ElecMinimize: Iter:  34  F: -553.769966930217493  |grad|_K:  4.223e-07  alpha:  4.382e-01  linmin:  4.999e-07  t[s]:    145.45
	FillingsUpdate:  mu: -0.101240360  nElectrons: 117.000000
	SubspaceRotationAdjust: set factor to 0.1
ElecMinimize: Iter:  35  F: -553.769970053269844  |grad|_K:  3.904e-07  alpha:  5.124e-01  linmin:  9.811e-06  t[s]:    149.47
	FillingsUpdate:  mu: -0.101516919  nElectrons: 117.000000
	SubspaceRotationAdjust: set factor to 0.1
ElecMinimize: Iter:  36  F: -553.769972829064159  |grad|_K:  3.924e-07  alpha:  5.331e-01  linmin:  8.609e-06  t[s]:    153.48
	FillingsUpdate:  mu: -0.101305505  nElectrons: 117.000000
	SubspaceRotationAdjust: set factor to 0.1
ElecMinimize: Iter:  37  F: -553.769975656434326  |grad|_K:  4.019e-07  alpha:  5.374e-01  linmin:  4.077e-06  t[s]:    157.47
	FillingsUpdate:  mu: -0.101221843  nElectrons: 117.000000
	SubspaceRotationAdjust: set factor to 0.102
ElecMinimize: Iter:  38  F: -553.769978581820624  |grad|_K:  3.799e-07  alpha:  5.301e-01  linmin:  1.189e-05  t[s]:    161.46
	FillingsUpdate:  mu: -0.101577367  nElectrons: 117.000000

Dumping 'X.fillings' ... done
Dumping 'X.wfns' ... done
Dumping 'X.force' ... done
Dumping 'X.eigenvals' ... done
	SubspaceRotationAdjust: set factor to 0.101
ElecMinimize: Iter:  39  F: -553.769981146427767  |grad|_K:  3.891e-07  alpha:  5.203e-01  linmin:  1.419e-05  t[s]:    165.77
	FillingsUpdate:  mu: -0.101394225  nElectrons: 117.000000
	SubspaceRotationAdjust: set factor to 0.103
ElecMinimize: Iter:  40  F: -553.769984148704225  |grad|_K:  3.927e-07  alpha:  5.808e-01  linmin:  2.185e-05  t[s]:    169.76
	FillingsUpdate:  mu: -0.101193465  nElectrons: 117.000000
	SubspaceRotationAdjust: set factor to 0.104
ElecMinimize: Iter:  41  F: -553.769986467315107  |grad|_K:  3.362e-07  alpha:  4.401e-01  linmin: -9.073e-07  t[s]:    173.81
	FillingsUpdate:  mu: -0.101456264  nElectrons: 117.000000
	SubspaceRotationAdjust: set factor to 0.104
ElecMinimize: Iter:  42  F: -553.769988499721535  |grad|_K:  3.245e-07  alpha:  5.258e-01  linmin: -4.756e-06  t[s]:    177.81
	FillingsUpdate:  mu: -0.101329002  nElectrons: 117.000000
	SubspaceRotationAdjust: set factor to 0.107
ElecMinimize: Iter:  43  F: -553.769990383171262  |grad|_K:  3.310e-07  alpha:  5.232e-01  linmin: -5.653e-07  t[s]:    181.80
	FillingsUpdate:  mu: -0.101129513  nElectrons: 117.000000
	SubspaceRotationAdjust: set factor to 0.11
ElecMinimize: Iter:  44  F: -553.769992409173142  |grad|_K:  3.371e-07  alpha:  5.412e-01  linmin: -1.016e-05  t[s]:    185.80
	FillingsUpdate:  mu: -0.101444049  nElectrons: 117.000000
	SubspaceRotationAdjust: set factor to 0.111
ElecMinimize: Iter:  45  F: -553.769994616377858  |grad|_K:  3.569e-07  alpha:  5.677e-01  linmin: -3.825e-05  t[s]:    189.80
	FillingsUpdate:  mu: -0.101292619  nElectrons: 117.000000
	SubspaceRotationAdjust: set factor to 0.116
ElecMinimize: Iter:  46  F: -553.769997345427555  |grad|_K:  4.151e-07  alpha:  6.237e-01  linmin: -6.744e-05  t[s]:    193.80
	FillingsUpdate:  mu: -0.101009619  nElectrons: 117.000000

Dumping 'X.fillings' ... done
Dumping 'X.wfns' ... done
Dumping 'X.force' ... done
Dumping 'X.eigenvals' ... done
	SubspaceRotationAdjust: set factor to 0.12
ElecMinimize: Iter:  47  F: -553.770001366258612  |grad|_K:  5.361e-07  alpha:  6.780e-01  linmin:  5.943e-05  t[s]:    198.13
	FillingsUpdate:  mu: -0.101205711  nElectrons: 117.000000
	SubspaceRotationAdjust: set factor to 0.131
ElecMinimize: Iter:  48  F: -553.770005030327411  |grad|_K:  4.355e-07  alpha:  2.537e-01  linmin: -2.580e-03  t[s]:    202.13
	FillingsUpdate:  mu: -0.101441203  nElectrons: 117.000000
	SubspaceRotationAdjust: set factor to 0.139
ElecMinimize: Iter:  49  F: -553.770007366925029  |grad|_K:  3.886e-07  alpha:  2.576e-01  linmin:  7.400e-04  t[s]:    206.13
	FillingsUpdate:  mu: -0.101398232  nElectrons: 117.000000
	SubspaceRotationAdjust: set factor to 0.154
ElecMinimize: Iter:  50  F: -553.770008156391782  |grad|_K:  3.635e-07  alpha:  1.604e-01  linmin: -8.074e-05  t[s]:    210.13
	FillingsUpdate:  mu: -0.101290326  nElectrons: 117.000000
	SubspaceRotationAdjust: set factor to 0.176
ElecMinimize: Iter:  51  F: -553.770008717069118  |grad|_K:  3.000e-07  alpha:  1.209e-01  linmin:  1.140e-04  t[s]:    214.13
	FillingsUpdate:  mu: -0.101237883  nElectrons: 117.000000
	SubspaceRotationAdjust: set factor to 0.211
ElecMinimize: Iter:  52  F: -553.770009098153196  |grad|_K:  2.992e-07  alpha:  1.253e-01  linmin:  1.712e-04  t[s]:    218.13
	FillingsUpdate:  mu: -0.101282741  nElectrons: 117.000000
	SubspaceRotationAdjust: set factor to 0.257
ElecMinimize: Iter:  53  F: -553.770009501869481  |grad|_K:  3.306e-07  alpha:  1.340e-01  linmin:  1.527e-04  t[s]:    222.14
	FillingsUpdate:  mu: -0.101391551  nElectrons: 117.000000
	SubspaceRotationAdjust: set factor to 0.324
ElecMinimize: Iter:  54  F: -553.770009916810181  |grad|_K:  3.427e-07  alpha:  1.123e-01  linmin:  8.399e-05  t[s]:    226.14
	FillingsUpdate:  mu: -0.101444146  nElectrons: 117.000000

Dumping 'X.fillings' ... done
Dumping 'X.wfns' ... done
Dumping 'X.force' ... done
Dumping 'X.eigenvals' ... done
	SubspaceRotationAdjust: set factor to 0.357
ElecMinimize: Iter:  55  F: -553.770010299717342  |grad|_K:  3.509e-07  alpha:  9.599e-02  linmin:  7.524e-05  t[s]:    230.42
	FillingsUpdate:  mu: -0.101384810  nElectrons: 117.000000
	SubspaceRotationAdjust: set factor to 0.375
ElecMinimize: Iter:  56  F: -553.770010661863921  |grad|_K:  3.659e-07  alpha:  8.665e-02  linmin:  5.803e-05  t[s]:    234.44
	FillingsUpdate:  mu: -0.101298123  nElectrons: 117.000000
	SubspaceRotationAdjust: set factor to 0.412
ElecMinimize: Iter:  57  F: -553.770011055130908  |grad|_K:  4.029e-07  alpha:  8.664e-02  linmin:  5.124e-05  t[s]:    238.44
	FillingsUpdate:  mu: -0.101312252  nElectrons: 117.000000
	SubspaceRotationAdjust: set factor to 0.465
ElecMinimize: Iter:  58  F: -553.770011504537365  |grad|_K:  4.370e-07  alpha:  8.175e-02  linmin:  3.897e-05  t[s]:    242.45
	FillingsUpdate:  mu: -0.101428713  nElectrons: 117.000000
	SubspaceRotationAdjust: set factor to 0.497
ElecMinimize: Iter:  59  F: -553.770011963531033  |grad|_K:  4.535e-07  alpha:  7.100e-02  linmin:  1.772e-05  t[s]:    246.45
	FillingsUpdate:  mu: -0.101500921  nElectrons: 117.000000
	SubspaceRotationAdjust: set factor to 0.486
ElecMinimize: Iter:  60  F: -553.770012427605707  |grad|_K:  4.649e-07  alpha:  6.628e-02  linmin:  5.133e-06  t[s]:    250.46
	FillingsUpdate:  mu: -0.101433818  nElectrons: 117.000000
	SubspaceRotationAdjust: set factor to 0.494
ElecMinimize: Iter:  61  F: -553.770012892033492  |grad|_K:  4.617e-07  alpha:  6.300e-02  linmin: -1.675e-06  t[s]:    254.47
	FillingsUpdate:  mu: -0.101328686  nElectrons: 117.000000
	SubspaceRotationAdjust: set factor to 0.51
ElecMinimize: Iter:  62  F: -553.770013369814592  |grad|_K:  4.781e-07  alpha:  6.553e-02  linmin: -6.923e-06  t[s]:    258.46
	FillingsUpdate:  mu: -0.101338192  nElectrons: 117.000000

Dumping 'X.fillings' ... done
Dumping 'X.wfns' ... done
Dumping 'X.force' ... done
Dumping 'X.eigenvals' ... done
	SubspaceRotationAdjust: set factor to 0.545
ElecMinimize: Iter:  63  F: -553.770013879379007  |grad|_K:  4.888e-07  alpha:  6.511e-02  linmin: -9.682e-06  t[s]:    262.75
	FillingsUpdate:  mu: -0.101449979  nElectrons: 117.000000
	SubspaceRotationAdjust: set factor to 0.578
ElecMinimize: Iter:  64  F: -553.770014376997096  |grad|_K:  4.912e-07  alpha:  6.079e-02  linmin: -4.561e-06  t[s]:    266.73
	FillingsUpdate:  mu: -0.101494531  nElectrons: 117.000000
	SubspaceRotationAdjust: set factor to 0.581
ElecMinimize: Iter:  65  F: -553.770014850604412  |grad|_K:  4.934e-07  alpha:  5.733e-02  linmin:  1.419e-05  t[s]:    270.70
	FillingsUpdate:  mu: -0.101407688  nElectrons: 117.000000
	SubspaceRotationAdjust: set factor to 0.59
ElecMinimize: Iter:  66  F: -553.770015270269027  |grad|_K:  4.799e-07  alpha:  5.057e-02  linmin:  2.500e-05  t[s]:    274.68
	FillingsUpdate:  mu: -0.101309581  nElectrons: 117.000000
	SubspaceRotationAdjust: set factor to 0.58
ElecMinimize: Iter:  67  F: -553.770015644298724  |grad|_K:  4.786e-07  alpha:  4.772e-02  linmin:  3.667e-05  t[s]:    278.66
	FillingsUpdate:  mu: -0.101304042  nElectrons: 117.000000
	SubspaceRotationAdjust: set factor to 0.57
ElecMinimize: Iter:  68  F: -553.770015989830199  |grad|_K:  4.691e-07  alpha:  4.444e-02  linmin:  3.219e-05  t[s]:    282.66
	FillingsUpdate:  mu: -0.101371368  nElectrons: 117.000000
	SubspaceRotationAdjust: set factor to 0.562
ElecMinimize: Iter:  69  F: -553.770016306029333  |grad|_K:  4.576e-07  alpha:  4.232e-02  linmin:  9.017e-06  t[s]:    286.64
	FillingsUpdate:  mu: -0.101419352  nElectrons: 117.000000
	SubspaceRotationAdjust: set factor to 0.536
ElecMinimize: Iter:  70  F: -553.770016612489371  |grad|_K:  4.545e-07  alpha:  4.290e-02  linmin:  6.206e-06  t[s]:    290.64
	FillingsUpdate:  mu: -0.101383096  nElectrons: 117.000000

Dumping 'X.fillings' ... done
Dumping 'X.wfns' ... done
Dumping 'X.force' ... done
Dumping 'X.eigenvals' ... done
	SubspaceRotationAdjust: set factor to 0.511
ElecMinimize: Iter:  71  F: -553.770016915157953  |grad|_K:  4.433e-07  alpha:  4.292e-02  linmin:  8.888e-06  t[s]:    295.03
	FillingsUpdate:  mu: -0.101292490  nElectrons: 117.000000
	SubspaceRotationAdjust: set factor to 0.487
ElecMinimize: Iter:  72  F: -553.770017210973378  |grad|_K:  4.349e-07  alpha:  4.412e-02  linmin: -5.099e-06  t[s]:    299.04
	FillingsUpdate:  mu: -0.101232849  nElectrons: 117.000000
	SubspaceRotationAdjust: set factor to 0.457
ElecMinimize: Iter:  73  F: -553.770017514489496  |grad|_K:  4.314e-07  alpha:  4.687e-02  linmin: -2.403e-05  t[s]:    303.03
	FillingsUpdate:  mu: -0.101261400  nElectrons: 117.000000
	SubspaceRotationAdjust: set factor to 0.438
ElecMinimize: Iter:  74  F: -553.770017827874199  |grad|_K:  4.189e-07  alpha:  4.897e-02  linmin: -1.703e-05  t[s]:    307.02
	FillingsUpdate:  mu: -0.101342495  nElectrons: 117.000000
	SubspaceRotationAdjust: set factor to 0.423
ElecMinimize: Iter:  75  F: -553.770018138629666  |grad|_K:  4.102e-07  alpha:  5.158e-02  linmin: -3.425e-05  t[s]:    311.02
	FillingsUpdate:  mu: -0.101388232  nElectrons: 117.000000
	SubspaceRotationAdjust: set factor to 0.406
ElecMinimize: Iter:  76  F: -553.770018460662186  |grad|_K:  4.059e-07  alpha:  5.545e-02  linmin: -2.245e-05  t[s]:    315.01
	FillingsUpdate:  mu: -0.101347360  nElectrons: 117.000000
	SubspaceRotationAdjust: set factor to 0.408
ElecMinimize: Iter:  77  F: -553.770018783608293  |grad|_K:  3.954e-07  alpha:  5.695e-02  linmin: -2.953e-05  t[s]:    319.01
	FillingsUpdate:  mu: -0.101268948  nElectrons: 117.000000
	SubspaceRotationAdjust: set factor to 0.412
ElecMinimize: Iter:  78  F: -553.770019105261895  |grad|_K:  3.909e-07  alpha:  5.968e-02  linmin: -2.307e-05  t[s]:    323.05
	FillingsUpdate:  mu: -0.101247920  nElectrons: 117.000000

Dumping 'X.fillings' ... done
Dumping 'X.wfns' ... done
Dumping 'X.force' ... done
Dumping 'X.eigenvals' ... done
	SubspaceRotationAdjust: set factor to 0.408
ElecMinimize: Iter:  79  F: -553.770019426587396  |grad|_K:  3.842e-07  alpha:  6.106e-02  linmin: -3.338e-05  t[s]:    327.37
	FillingsUpdate:  mu: -0.101317701  nElectrons: 117.000000
	SubspaceRotationAdjust: set factor to 0.414
ElecMinimize: Iter:  80  F: -553.770019738998030  |grad|_K:  3.687e-07  alpha:  6.135e-02  linmin: -2.947e-05  t[s]:    331.37
	FillingsUpdate:  mu: -0.101403443  nElectrons: 117.000000
	SubspaceRotationAdjust: set factor to 0.423
ElecMinimize: Iter:  81  F: -553.770020041469024  |grad|_K:  3.641e-07  alpha:  6.458e-02  linmin: -4.195e-05  t[s]:    335.37
	FillingsUpdate:  mu: -0.101408813  nElectrons: 117.000000
	SubspaceRotationAdjust: set factor to 0.454
ElecMinimize: Iter:  82  F: -553.770020354384428  |grad|_K:  3.622e-07  alpha:  6.818e-02  linmin: -5.279e-05  t[s]:    339.36
	FillingsUpdate:  mu: -0.101328787  nElectrons: 117.000000
	SubspaceRotationAdjust: set factor to 0.505
ElecMinimize: Iter:  83  F: -553.770020675500746  |grad|_K:  3.629e-07  alpha:  7.055e-02  linmin: -5.910e-05  t[s]:    343.40
	FillingsUpdate:  mu: -0.101282210  nElectrons: 117.000000
	SubspaceRotationAdjust: set factor to 0.534
ElecMinimize: Iter:  84  F: -553.770021014416102  |grad|_K:  3.671e-07  alpha:  7.399e-02  linmin: -7.530e-05  t[s]:    347.40
	FillingsUpdate:  mu: -0.101366038  nElectrons: 117.000000
	SubspaceRotationAdjust: set factor to 0.582
ElecMinimize: Iter:  85  F: -553.770021358956683  |grad|_K:  3.535e-07  alpha:  7.355e-02  linmin: -8.636e-05  t[s]:    351.41
	FillingsUpdate:  mu: -0.101446685  nElectrons: 117.000000
	SubspaceRotationAdjust: set factor to 0.614
ElecMinimize: Iter:  86  F: -553.770021713315032  |grad|_K:  3.558e-07  alpha:  8.128e-02  linmin: -1.069e-04  t[s]:    355.43
	FillingsUpdate:  mu: -0.101344381  nElectrons: 117.000000

Dumping 'X.fillings' ... done
Dumping 'X.wfns' ... done
Dumping 'X.force' ... done
Dumping 'X.eigenvals' ... done
	SubspaceRotationAdjust: set factor to 0.732
ElecMinimize: Iter:  87  F: -553.770022092643785  |grad|_K:  3.518e-07  alpha:  8.561e-02  linmin: -7.338e-05  t[s]:    360.07
	FillingsUpdate:  mu: -0.101275775  nElectrons: 117.000000
	SubspaceRotationAdjust: set factor to 0.879
	SubspaceRotationAdjust: resetting CG because factor has changed by 8.53636
ElecMinimize: 	State modified externally: resetting search direction.
ElecMinimize: Iter:  88  F: -553.770022505775614  |grad|_K:  3.833e-07  alpha:  9.594e-02
ElecMinimize: 	Predicted alpha/alphaT>3.000000, increasing alphaT to 2.878176e-01.
	FillingsUpdate:  mu: -0.102200345  nElectrons: 117.000000
	SubspaceRotationAdjust: set factor to 0.469
ElecMinimize: Iter:  89  F: -553.770023962973596  |grad|_K:  9.249e-07  alpha:  2.901e-01  linmin: -2.173e-05  t[s]:    371.52
	FillingsUpdate:  mu: -0.101230265  nElectrons: 117.000000
	SubspaceRotationAdjust: set factor to 0.355
ElecMinimize: Iter:  90  F: -553.770025769004519  |grad|_K:  4.284e-07  alpha:  6.018e-02  linmin: -1.321e-04  t[s]:    375.51
ElecMinimize: 	Predicted alpha/alphaT>3.000000, increasing alphaT to 1.805380e-01.
	FillingsUpdate:  mu: -0.100586758  nElectrons: 117.000000
	SubspaceRotationAdjust: set factor to 0.223
ElecMinimize: Iter:  91  F: -553.770028137797567  |grad|_K:  5.148e-07  alpha:  3.714e-01  linmin:  1.622e-04  t[s]:    380.69
	FillingsUpdate:  mu: -0.101404308  nElectrons: 117.000000
	SubspaceRotationAdjust: set factor to 0.153
ElecMinimize: Iter:  92  F: -553.770028947186120  |grad|_K:  2.765e-07  alpha:  9.043e-02  linmin: -1.907e-05  t[s]:    384.70
ElecMinimize: 	Predicted alpha/alphaT>3.000000, increasing alphaT to 2.712854e-01.
	FillingsUpdate:  mu: -0.101828115  nElectrons: 117.000000
	SubspaceRotationAdjust: set factor to 0.126
ElecMinimize: Iter:  93  F: -553.770029718511523  |grad|_K:  2.952e-07  alpha:  2.947e-01  linmin:  4.697e-05  t[s]:    389.89
	FillingsUpdate:  mu: -0.101179713  nElectrons: 117.000000
	SubspaceRotationAdjust: set factor to 0.115
	SubspaceRotationAdjust: resetting CG because factor has changed by 0.131203
ElecMinimize: 	State modified externally: resetting search direction.
ElecMinimize: Iter:  94  F: -553.770030607444937  |grad|_K:  3.146e-07  alpha:  2.992e-01
	FillingsUpdate:  mu: -0.101361543  nElectrons: 117.000000

Dumping 'X.fillings' ... done
Dumping 'X.wfns' ... done
Dumping 'X.force' ... done
Dumping 'X.eigenvals' ... done
	SubspaceRotationAdjust: set factor to 0.148
ElecMinimize: Iter:  95  F: -553.770031372157518  |grad|_K:  1.742e-07  alpha:  2.260e-01  linmin: -5.947e-05  t[s]:    400.49
ElecMinimize: 	Predicted alpha/alphaT>3.000000, increasing alphaT to 6.781418e-01.
	FillingsUpdate:  mu: -0.101312265  nElectrons: 117.000000
	SubspaceRotationAdjust: set factor to 0.151
ElecMinimize: Iter:  96  F: -553.770032867910231  |grad|_K:  3.299e-07  alpha:  1.441e+00  linmin: -1.105e-05  t[s]:    405.64
	FillingsUpdate:  mu: -0.101172406  nElectrons: 117.000000
	SubspaceRotationAdjust: set factor to 0.152
ElecMinimize: Iter:  97  F: -553.770038230815544  |grad|_K:  4.841e-07  alpha:  1.441e+00  linmin: -1.476e-05  t[s]:    409.63
	FillingsUpdate:  mu: -0.101754206  nElectrons: 117.000000
	SubspaceRotationAdjust: set factor to 0.144
ElecMinimize: Iter:  98  F: -553.770041216272375  |grad|_K:  3.496e-07  alpha:  3.649e-01  linmin: -3.945e-04  t[s]:    413.66
	FillingsUpdate:  mu: -0.101067335  nElectrons: 117.000000
	SubspaceRotationAdjust: set factor to 0.128
ElecMinimize: Iter:  99  F: -553.770043278822868  |grad|_K:  3.151e-07  alpha:  4.830e-01  linmin:  1.496e-04  t[s]:    417.64
	FillingsUpdate:  mu: -0.101740535  nElectrons: 117.000000
	SubspaceRotationAdjust: set factor to 0.111
ElecMinimize: Iter: 100  F: -553.770044897756520  |grad|_K:  2.722e-07  alpha:  4.804e-01  linmin:  1.184e-04  t[s]:    421.63
	FillingsUpdate:  mu: -0.101411208  nElectrons: 117.000000
	SubspaceRotationAdjust: set factor to 0.14
ElecMinimize: Iter: 101  F: -553.770045865475140  |grad|_K:  1.885e-07  alpha:  3.833e-01  linmin:  3.113e-05  t[s]:    425.63
	FillingsUpdate:  mu: -0.101223700  nElectrons: 117.000000
	SubspaceRotationAdjust: set factor to 0.165
ElecMinimize: Iter: 102  F: -553.770046470942248  |grad|_K:  1.915e-07  alpha:  5.002e-01  linmin:  1.468e-04  t[s]:    429.61
	FillingsUpdate:  mu: -0.101575366  nElectrons: 117.000000

Dumping 'X.fillings' ... done
Dumping 'X.wfns' ... done
Dumping 'X.force' ... done
Dumping 'X.eigenvals' ... done
	SubspaceRotationAdjust: set factor to 0.164
ElecMinimize: Iter: 103  F: -553.770047252074619  |grad|_K:  2.335e-07  alpha:  6.283e-01  linmin:  1.238e-04  t[s]:    433.92
	FillingsUpdate:  mu: -0.101082196  nElectrons: 117.000000
	SubspaceRotationAdjust: set factor to 0.144
ElecMinimize: Iter: 104  F: -553.770047986464533  |grad|_K:  2.065e-07  alpha:  3.927e-01  linmin: -3.623e-05  t[s]:    437.91
	FillingsUpdate:  mu: -0.101320804  nElectrons: 117.000000
	SubspaceRotationAdjust: set factor to 0.149
ElecMinimize: Iter: 105  F: -553.770048575715350  |grad|_K:  1.567e-07  alpha:  4.038e-01  linmin:  1.057e-04  t[s]:    441.91
	FillingsUpdate:  mu: -0.101339288  nElectrons: 117.000000
	SubspaceRotationAdjust: set factor to 0.171
ElecMinimize: Iter: 106  F: -553.770048919854730  |grad|_K:  1.308e-07  alpha:  4.129e-01  linmin:  5.836e-05  t[s]:    445.90
	FillingsUpdate:  mu: -0.101136986  nElectrons: 117.000000
	SubspaceRotationAdjust: set factor to 0.169
ElecMinimize: Iter: 107  F: -553.770049206446856  |grad|_K:  1.358e-07  alpha:  4.921e-01  linmin:  4.977e-05  t[s]:    449.90
	FillingsUpdate:  mu: -0.101437570  nElectrons: 117.000000
	SubspaceRotationAdjust: set factor to 0.144
ElecMinimize: Iter: 108  F: -553.770049426923606  |grad|_K:  1.191e-07  alpha:  3.501e-01  linmin: -2.023e-06  t[s]:    453.91
	FillingsUpdate:  mu: -0.101312921  nElectrons: 117.000000
	SubspaceRotationAdjust: set factor to 0.15
ElecMinimize: Iter: 109  F: -553.770049655613207  |grad|_K:  1.168e-07  alpha:  4.726e-01  linmin:  2.705e-05  t[s]:    457.93
	FillingsUpdate:  mu: -0.101302644  nElectrons: 117.000000
	SubspaceRotationAdjust: set factor to 0.167
ElecMinimize: Iter: 110  F: -553.770049904180155  |grad|_K:  1.205e-07  alpha:  5.320e-01  linmin: -5.417e-05  t[s]:    461.91
	FillingsUpdate:  mu: -0.101516054  nElectrons: 117.000000

Dumping 'X.fillings' ... done
Dumping 'X.wfns' ... done
Dumping 'X.force' ... done
Dumping 'X.eigenvals' ... done
	SubspaceRotationAdjust: set factor to 0.166
ElecMinimize: Iter: 111  F: -553.770050159698826  |grad|_K:  1.222e-07  alpha:  5.113e-01  linmin: -2.242e-05  t[s]:    466.18
	FillingsUpdate:  mu: -0.101255091  nElectrons: 117.000000
	SubspaceRotationAdjust: set factor to 0.153
ElecMinimize: Iter: 112  F: -553.770050370621220  |grad|_K:  1.339e-07  alpha:  4.140e-01  linmin: -5.357e-05  t[s]:    470.15
	FillingsUpdate:  mu: -0.101446660  nElectrons: 117.000000
	SubspaceRotationAdjust: set factor to 0.156
ElecMinimize: Iter: 113  F: -553.770050729108561  |grad|_K:  1.418e-07  alpha:  5.798e-01  linmin: -1.175e-04  t[s]:    474.16
	FillingsUpdate:  mu: -0.101415675  nElectrons: 117.000000
	SubspaceRotationAdjust: set factor to 0.175
ElecMinimize: Iter: 114  F: -553.770051140595797  |grad|_K:  1.465e-07  alpha:  5.911e-01  linmin: -1.224e-04  t[s]:    478.14
	FillingsUpdate:  mu: -0.101195018  nElectrons: 117.000000
	SubspaceRotationAdjust: set factor to 0.182
ElecMinimize: Iter: 115  F: -553.770051500692944  |grad|_K:  1.458e-07  alpha:  4.836e-01  linmin: -1.195e-04  t[s]:    482.12
	FillingsUpdate:  mu: -0.101522492  nElectrons: 117.000000
	SubspaceRotationAdjust: set factor to 0.161
ElecMinimize: Iter: 116  F: -553.770051831890555  |grad|_K:  1.679e-07  alpha:  4.500e-01  linmin: -1.350e-04  t[s]:    486.12
	FillingsUpdate:  mu: -0.101087732  nElectrons: 117.000000
	SubspaceRotationAdjust: set factor to 0.142
ElecMinimize: Iter: 117  F: -553.770052347266756  |grad|_K:  2.040e-07  alpha:  5.247e-01  linmin: -1.451e-04  t[s]:    490.10
	FillingsUpdate:  mu: -0.101269549  nElectrons: 117.000000
	SubspaceRotationAdjust: set factor to 0.148
ElecMinimize: Iter: 118  F: -553.770053382263995  |grad|_K:  2.638e-07  alpha:  7.201e-01  linmin: -2.801e-05  t[s]:    494.09
	FillingsUpdate:  mu: -0.101294635  nElectrons: 117.000000

Dumping 'X.fillings' ... done
Dumping 'X.wfns' ... done
Dumping 'X.force' ... done
Dumping 'X.eigenvals' ... done
	SubspaceRotationAdjust: set factor to 0.164
ElecMinimize: Iter: 119  F: -553.770054202703818  |grad|_K:  2.286e-07  alpha:  2.244e-01  linmin: -1.775e-03  t[s]:    498.43
	FillingsUpdate:  mu: -0.101173379  nElectrons: 117.000000
	SubspaceRotationAdjust: set factor to 0.18
ElecMinimize: Iter: 120  F: -553.770054870870581  |grad|_K:  2.148e-07  alpha:  2.626e-01  linmin:  5.053e-04  t[s]:    502.42
	FillingsUpdate:  mu: -0.101175940  nElectrons: 117.000000
	SubspaceRotationAdjust: set factor to 0.205
ElecMinimize: Iter: 121  F: -553.770055064621715  |grad|_K:  2.056e-07  alpha:  1.271e-01  linmin: -2.340e-04  t[s]:    506.42
	FillingsUpdate:  mu: -0.101236400  nElectrons: 117.000000
	SubspaceRotationAdjust: set factor to 0.247
ElecMinimize: Iter: 122  F: -553.770055232263417  |grad|_K:  1.733e-07  alpha:  1.089e-01  linmin:  7.131e-05  t[s]:    510.42
	FillingsUpdate:  mu: -0.101290325  nElectrons: 117.000000
	SubspaceRotationAdjust: set factor to 0.309
ElecMinimize: Iter: 123  F: -553.770055334082144  |grad|_K:  1.671e-07  alpha:  9.988e-02  linmin:  4.693e-05  t[s]:    514.43
	FillingsUpdate:  mu: -0.101309540  nElectrons: 117.000000
	SubspaceRotationAdjust: set factor to 0.401
ElecMinimize: Iter: 124  F: -553.770055428694945  |grad|_K:  1.744e-07  alpha:  9.968e-02  linmin:  6.183e-05  t[s]:    518.49
	FillingsUpdate:  mu: -0.101290769  nElectrons: 117.000000
	SubspaceRotationAdjust: set factor to 0.491
ElecMinimize: Iter: 125  F: -553.770055517033484  |grad|_K:  1.813e-07  alpha:  8.562e-02  linmin: -6.618e-06  t[s]:    522.48
ElecMinimize: Converged (|Delta F|<1.000000e-07 for 2 iters).
Setting wave functions to eigenvectors of Hamiltonian

# Ionic positions in lattice coordinates:
ion Na   0.000000000000000   0.000000000000000   0.243900000000000 1
ion Na   0.500000000000000   0.500000000000000   0.286590000000000 1
ion Na   0.000000000000000   0.000000000000000   0.329270000000000 1
ion Na   0.500000000000000   0.500000000000000   0.371950000000000 1
ion Na   0.000000000000000   0.000000000000000   0.414630000000000 1
ion Na   0.500000000000000   0.500000000000000   0.457320000000000 1
ion Na   0.000000000000000   0.000000000000000   0.500000000000000 1
ion Na   0.500000000000000   0.500000000000000   0.542680000000000 1
ion Na   0.000000000000000   0.000000000000000   0.585370000000000 1
ion Na   0.500000000000000   0.500000000000000   0.628050000000000 1
ion Na   0.000000000000000   0.000000000000000   0.670730000000000 1
ion Na   0.500000000000000   0.500000000000000   0.713410000000000 1
ion Na   0.000000000000000   0.000000000000000   0.756100000000000 1

# Forces in Lattice coordinates:
force Na   0.000000000000000  -0.000000000000000  -0.041906776110625 1
force Na   0.000000000000000  -0.000000000000000   0.006821358382176 1
force Na  -0.000000000000000   0.000000000000000  -0.014960411987717 1
force Na  -0.000000000000000  -0.000000000000000  -0.013789292937560 1
force Na   0.000000000000000   0.000000000000000  -0.003565977593360 1
force Na   0.000000000000000   0.000000000000000  -0.003362060362339 1
force Na   0.000000000000000   0.000000000000000   0.000000000000000 1
force Na   0.000000000000000   0.000000000000000   0.003362060362112 1
force Na   0.000000000000000   0.000000000000000   0.003565977593360 1
force Na  -0.000000000000000  -0.000000000000000   0.013789292937560 1
force Na  -0.000000000000000  -0.000000000000000   0.014960411987717 1
force Na   0.000000000000000  -0.000000000000000  -0.006821358382176 1
force Na  -0.000000000000000   0.000000000000000   0.041906776112445 1

# Energy components:
   Eewald =   -11945.6313197421186487
       EH =   -11502.4274190962605644
     Eloc =    22861.8749161236191867
      Enl =     -168.0490604364305796
   Epulay =        0.0000116228607562
      Exc =      -81.3935454321840837
       KE =      281.9075905348882998
-------------------------------------
     Etot =     -553.7188264256257071
       TS =        0.0512290914077592
-------------------------------------
        F =     -553.7700555170334837

IonicMinimize: Iter:   0  F: -553.770055517033484  |grad|_K:  1.153e-04  t[s]:    523.04
IonicMinimize: None of the convergence criteria satisfied after 0 iterations.

#--- Lowdin population analysis ---
# oxidation-state Na +0.076 +0.051 +0.048 +0.056 +0.054 +0.054 +0.055 +0.054 +0.054 +0.056 +0.048 +0.051 +0.076


Dumping 'X.fillings' ... done
Dumping 'X.wfns' ... done
Dumping 'X.ionpos' ... done
Dumping 'X.lattice' ... done
Dumping 'X.n' ... done
Dumping 'X.eigenvals' ... done
Dumping 'X.eigStats' ... 
	eMin: -2.063254 at state 0 ( [ +0.000000 +0.000000 +0.000000 ] spin 0 )
	HOMO: -0.102187 at state 11 ( [ +0.181818 +0.181818 +0.000000 ] spin 0 )
	mu  : -0.101291
	LUMO: -0.100750 at state 9 ( [ +0.090909 +0.363636 +0.000000 ] spin 0 )
	eMax: +0.001756 at state 11 ( [ +0.181818 +0.181818 +0.000000 ] spin 0 )
	HOMO-LUMO gap: +0.001438
	Optical gap  : +0.003455 at state 5 ( [ +0.000000 +0.454545 +0.000000 ] spin 0 )
Dumping 'X.dos' ... done.
End date and time: Thu Nov  9 00:44:17 2023  (Duration: 0-0:08:43.68)
Done!

*************** JDFTx 1.7.0  ***************

Start date and time: Thu Nov  9 00:44:19 2023
Executable jdftx with command-line: -m -i X.in -o X.out
Running on hosts (process indices):  ac0015 (0-20)
Divided in process groups (process indices):  0 (0)  1 (1)  2 (2)  3 (3)  4 (4)  5 (5)  6 (6)  7 (7)  8 (8)  9 (9)  10 (10)  11 (11)  12 (12)  13 (13)  14 (14)  15 (15)  16 (16)  17 (17)  18 (18)  19 (19)  20 (20)
Resource initialization completed at t[s]:      0.01
Run totals: 21 processes, 21 threads, 0 GPUs


Input parsed successfully to the following command list (including defaults):

basis kpoint-dependent
cache-projectors no
coords-type Lattice
core-overlap-check vector
coulomb-interaction Slab 001
coulomb-truncation-embed 0 0 0.5
davidson-band-ratio 1.1
density-of-states Etol 1.000000e-06 Esigma 0.000000e+00 \
		Complete \
	Total \
		Occupied \
	Total
dump End State IonicPositions Lattice ElecDensity CoreDensity EigStats DOS
dump Electronic State Forces
dump Ionic State IonicPositions Forces Lattice DOS
dump-interval Electronic 8
dump-interval Ionic 4
dump-name X.$var
elec-cutoff 30
elec-eigen-algo Davidson
elec-ex-corr gga-PBE
elec-smearing Fermi 0.0095
electronic-minimize  \
	dirUpdateScheme      FletcherReeves \
	linminMethod         DirUpdateRecommended \
	nIterations          2000 \
	history              15 \
	knormThreshold       0 \
	energyDiffThreshold  1e-07 \
	nEnergyDiff          2 \
	alphaTstart          1 \
	alphaTmin            1e-10 \
	updateTestStepSize   yes \
	alphaTreduceFactor   0.1 \
	alphaTincreaseFactor 3 \
	nAlphaAdjustMax      3 \
	wolfeEnergy          0.0001 \
	wolfeGradient        0.9 \
	fdTest               no
exchange-regularization WignerSeitzTruncated
fluid None
fluid-ex-corr (null) lda-PZ
fluid-gummel-loop 10 1.000000e-05
fluid-minimize  \
	dirUpdateScheme      PolakRibiere \
	linminMethod         DirUpdateRecommended \
	nIterations          100 \
	history              15 \
	knormThreshold       0 \
	energyDiffThreshold  0 \
	nEnergyDiff          2 \
	alphaTstart          1 \
	alphaTmin            1e-10 \
	updateTestStepSize   yes \
	alphaTreduceFactor   0.1 \
	alphaTincreaseFactor 3 \
	nAlphaAdjustMax      3 \
	wolfeEnergy          0.0001 \
	wolfeGradient        0.9 \
	fdTest               no
fluid-solvent H2O 55.338 ScalarEOS \
	epsBulk 78.4 \
	pMol 0.92466 \
	epsInf 1.77 \
	Pvap 1.06736e-10 \
	sigmaBulk 4.62e-05 \
	Rvdw 2.61727 \
	Res 1.42 \
	tauNuc 343133 \
	poleEl 15 7 1
forces-output-coords Positions
ion Na   0.000000000000000   0.000000000000000   0.243900000000000 1
ion Na   0.500000000000000   0.500000000000000   0.286590000000000 1
ion Na   0.000000000000000   0.000000000000000   0.329270000000000 1
ion Na   0.500000000000000   0.500000000000000   0.371950000000000 1
ion Na   0.000000000000000   0.000000000000000   0.414630000000000 1
ion Na   0.500000000000000   0.500000000000000   0.457320000000000 1
ion Na   0.000000000000000   0.000000000000000   0.500000000000000 1
ion Na   0.500000000000000   0.500000000000000   0.542680000000000 1
ion Na   0.000000000000000   0.000000000000000   0.585370000000000 1
ion Na   0.500000000000000   0.500000000000000   0.628050000000000 1
ion Na   0.000000000000000   0.000000000000000   0.670730000000000 1
ion Na   0.500000000000000   0.500000000000000   0.713410000000000 1
ion Na   0.000000000000000   0.000000000000000   0.756100000000000 1
ion-species SG15/$ID_ONCV_PBE.upf
ion-width 0
ionic-minimize  \
	dirUpdateScheme      L-BFGS \
	linminMethod         DirUpdateRecommended \
	nIterations          0 \
	history              15 \
	knormThreshold       0.0001 \
	energyDiffThreshold  1e-06 \
	nEnergyDiff          2 \
	alphaTstart          1 \
	alphaTmin            1e-10 \
	updateTestStepSize   yes \
	alphaTreduceFactor   0.1 \
	alphaTincreaseFactor 3 \
	nAlphaAdjustMax      3 \
	wolfeEnergy          0.0001 \
	wolfeGradient        0.9 \
	fdTest               no
kpoint   0.000000000000   0.000000000000   0.000000000000  1.00000000000000
kpoint-folding 11 11 1 
latt-move-scale 1 1 1
latt-scale 1 1 1 
lattice  \
	   7.936714821600003   -0.000000000000000   -0.000000000000000  \
	   0.000000000000000    7.936714821600003   -0.000000000000000  \
	   0.000000000000000    0.000000000000000   92.973771134999993 
lattice-minimize  \
	dirUpdateScheme      L-BFGS \
	linminMethod         DirUpdateRecommended \
	nIterations          0 \
	history              15 \
	knormThreshold       0 \
	energyDiffThreshold  1e-06 \
	nEnergyDiff          2 \
	alphaTstart          1 \
	alphaTmin            1e-10 \
	updateTestStepSize   yes \
	alphaTreduceFactor   0.1 \
	alphaTincreaseFactor 3 \
	nAlphaAdjustMax      3 \
	wolfeEnergy          0.0001 \
	wolfeGradient        0.9 \
	fdTest               no
lcao-params -1 1e-06 0.0095
pcm-variant GLSSA13
spintype no-spin
subspace-rotation-factor 1 yes
symmetries automatic
symmetry-threshold 0.0001
wavefunction read X.wfns 65 20.000000



---------- Setting up symmetries ----------

Found 16 point-group symmetries of the bravais lattice
Found 16 space-group symmetries with basis
Applied RMS atom displacement 0 bohrs to make symmetries exact.

---------- Initializing the Grid ----------
R = 
[      7.93671            0            0  ]
[            0      7.93671            0  ]
[            0            0      92.9738  ]
unit cell volume = 5856.55
G =
[   0.791661          0          0  ]
[         -0   0.791661          0  ]
[          0         -0  0.0675802  ]
Minimum fftbox size, Smin = [  40  40  460  ]
Chosen fftbox size, S = [  40  40  480  ]

---------- Exchange Correlation functional ----------
Initalized PBE GGA exchange.
Initalized PBE GGA correlation.

---------- Setting up pseudopotentials ----------
Width of ionic core gaussian charges (only for fluid interactions / plotting) set to 0

Reading pseudopotential file '/net/software/testing/software/jdftx/1.7.0-foss-2021b-mkl/share/jdftx/pseudopotentials/SG15/Na_ONCV_PBE.upf':
  'Na' pseudopotential, 'PBE' functional
  Generated using ONCVPSP code by D. R. Hamann
  Author: Martin Schlipf and Francois Gygi  Date: 150915.
  9 valence electrons, 3 orbitals, 4 projectors, 1992 radial grid points, with lMax = 1
  Transforming local potential to a uniform radial grid of dG=0.02 with 1388 points.
  Transforming nonlocal projectors to a uniform radial grid of dG=0.02 with 528 points.
    2S    l: 0   occupation:  2.0   eigenvalue: -2.085640
    2P    l: 1   occupation:  6.0   eigenvalue: -1.053708
    3S    l: 0   occupation:  1.0   eigenvalue: -0.100838
  Transforming atomic orbitals to a uniform radial grid of dG=0.02 with 528 points.
  Core radius for overlap checks: 2.01 bohrs.
  Reading pulay file /net/software/testing/software/jdftx/1.7.0-foss-2021b-mkl/share/jdftx/pseudopotentials/SG15/Na_ONCV_PBE.pulay ... using dE_dnG = -3.261361e-04 computed for Ecut = 30.

Initialized 1 species with 13 total atoms.

Folded 1 k-points by 11x11x1 to 121 k-points.

---------- Setting up k-points, bands, fillings ----------
[...]
ElecMinimize: Iter:   6  F: -553.779845716137061  |grad|_K:  4.152e-08  alpha:  6.197e-01  linmin: -1.172e-04  t[s]:   6650.94
	FillingsUpdate:  mu: -0.095780475  nElectrons: 117.000000

Dumping 'X.fillings' ... done
Dumping 'X.wfns' ... done
Dumping 'X.ionpos' ... done
Dumping 'X.force' ... done
Dumping 'X.eigenvals' ... done
	SubspaceRotationAdjust: set factor to 0.0925
ElecMinimize: Iter:   7  F: -553.779845843836256  |grad|_K:  3.250e-08  alpha:  5.446e-01  linmin: -4.870e-05  t[s]:   6671.56
	FillingsUpdate:  mu: -0.095719177  nElectrons: 117.000000
	SubspaceRotationAdjust: set factor to 0.0941
ElecMinimize: Iter:   8  F: -553.779845917669604  |grad|_K:  2.484e-08  alpha:  5.166e-01  linmin: -1.150e-04  t[s]:   6690.74
	FillingsUpdate:  mu: -0.095747237  nElectrons: 117.000000
	SubspaceRotationAdjust: set factor to 0.102
ElecMinimize: Iter:   9  F: -553.779845963015759  |grad|_K:  2.033e-08  alpha:  5.399e-01  linmin:  6.691e-05  t[s]:   6709.94
	FillingsUpdate:  mu: -0.095785540  nElectrons: 117.000000
	SubspaceRotationAdjust: set factor to 0.106
ElecMinimize: Iter:  10  F: -553.779845991302182  |grad|_K:  1.605e-08  alpha:  5.063e-01  linmin: -1.985e-04  t[s]:   6729.29
	FillingsUpdate:  mu: -0.095775108  nElectrons: 117.000000
	SubspaceRotationAdjust: set factor to 0.109
ElecMinimize: Iter:  11  F: -553.779846007417859  |grad|_K:  1.335e-08  alpha:  4.699e-01  linmin:  2.022e-04  t[s]:   6748.60
	FillingsUpdate:  mu: -0.095778211  nElectrons: 117.000000
	SubspaceRotationAdjust: set factor to 0.115
ElecMinimize: Iter:  12  F: -553.779846018251988  |grad|_K:  1.094e-08  alpha:  4.637e-01  linmin:  6.640e-04  t[s]:   6767.96
	FillingsUpdate:  mu: -0.095785456  nElectrons: 117.000000
	SubspaceRotationAdjust: set factor to 0.125
ElecMinimize: Iter:  13  F: -553.779846025549546  |grad|_K:  8.508e-09  alpha:  4.733e-01  linmin: -6.232e-04  t[s]:   6787.61
	FillingsUpdate:  mu: -0.095782717  nElectrons: 117.000000
	SubspaceRotationAdjust: set factor to 0.135
ElecMinimize: Iter:  14  F: -553.779846030898057  |grad|_K:  6.887e-09  alpha:  4.981e-01  linmin: -1.334e-03  t[s]:   6807.16
ElecMinimize: Converged (|Delta F|<1.000000e-08 for 2 iters).
Setting wave functions to eigenvectors of Hamiltonian
Converging empty states (this may take a while): |deigs|: 2.064e-08
IonicMinimize: 	Wolfe criterion not satisfied: alpha: 1  (E-E0)/|gdotd0|: -0.834363  gdotd/gdotd0: 0.913839 (taking cubic step)

-------- Electronic minimization -----------
	FillingsUpdate:  mu: -0.223395491  nElectrons: 117.000000
ElecMinimize: Iter:   0  F: -553.507424755333886  |grad|_K:  9.609e-05  alpha:  1.000e+00
	FillingsUpdate:  mu: -0.035374853  nElectrons: 117.000000
	SubspaceRotationAdjust: set factor to 0.0858
ElecMinimize: Iter:   1  F: -553.766589723012771  |grad|_K:  1.811e-05  alpha:  2.138e-01  linmin:  1.619e-02  t[s]:   6863.71
	FillingsUpdate:  mu: -0.113862393  nElectrons: 117.000000
	SubspaceRotationAdjust: set factor to 0.0401
ElecMinimize: Iter:   2  F: -553.777212681628725  |grad|_K:  6.692e-06  alpha:  2.472e-01  linmin:  9.855e-04  t[s]:   6883.23
	FillingsUpdate:  mu: -0.096633640  nElectrons: 117.000000
	SubspaceRotationAdjust: set factor to 0.0583
ElecMinimize: Iter:   3  F: -553.779241252531392  |grad|_K:  2.765e-06  alpha:  3.392e-01  linmin: -7.021e-05  t[s]:   6902.84
	FillingsUpdate:  mu: -0.091015905  nElectrons: 117.000000
	SubspaceRotationAdjust: set factor to 0.0627
ElecMinimize: Iter:   4  F: -553.779595444473557  |grad|_K:  1.281e-06  alpha:  3.430e-01  linmin: -1.709e-05  t[s]:   6922.40
	FillingsUpdate:  mu: -0.092313248  nElectrons: 117.000000
	SubspaceRotationAdjust: set factor to 0.0854
ElecMinimize: Iter:   5  F: -553.779688618361092  |grad|_K:  7.181e-07  alpha:  4.203e-01  linmin: -1.816e-06  t[s]:   6942.03
	FillingsUpdate:  mu: -0.094339785  nElectrons: 117.000000
	SubspaceRotationAdjust: set factor to 0.112
ElecMinimize: Iter:   6  F: -553.779724811949336  |grad|_K:  5.458e-07  alpha:  5.197e-01  linmin: -1.750e-06  t[s]:   6962.45
	FillingsUpdate:  mu: -0.096108745  nElectrons: 117.000000

Dumping 'X.fillings' ... done
Dumping 'X.wfns' ... done
Dumping 'X.ionpos' ... done
Dumping 'X.force' ... done
Dumping 'X.eigenvals' ... done
	SubspaceRotationAdjust: set factor to 0.143
ElecMinimize: Iter:   7  F: -553.779747509521485  |grad|_K:  4.959e-07  alpha:  5.641e-01  linmin: -2.174e-06  t[s]:   6983.04
	FillingsUpdate:  mu: -0.096284014  nElectrons: 117.000000
	SubspaceRotationAdjust: set factor to 0.167
ElecMinimize: Iter:   8  F: -553.779769165214475  |grad|_K:  5.387e-07  alpha:  6.520e-01  linmin:  2.765e-06  t[s]:   7002.56
	FillingsUpdate:  mu: -0.097970479  nElectrons: 117.000000
	SubspaceRotationAdjust: set factor to 0.199
ElecMinimize: Iter:   9  F: -553.779797688081089  |grad|_K:  6.140e-07  alpha:  7.279e-01  linmin: -5.765e-06  t[s]:   7022.09
	FillingsUpdate:  mu: -0.095901643  nElectrons: 117.000000
	SubspaceRotationAdjust: set factor to 0.203
ElecMinimize: Iter:  10  F: -553.779822249236418  |grad|_K:  5.056e-07  alpha:  4.791e-01  linmin: -3.991e-07  t[s]:   7041.64
	FillingsUpdate:  mu: -0.096940465  nElectrons: 117.000000
	SubspaceRotationAdjust: set factor to 0.174
ElecMinimize: Iter:  11  F: -553.779834405998940  |grad|_K:  3.952e-07  alpha:  3.527e-01  linmin: -1.699e-06  t[s]:   7061.15
	FillingsUpdate:  mu: -0.095299538  nElectrons: 117.000000
	SubspaceRotationAdjust: set factor to 0.139
ElecMinimize: Iter:  12  F: -553.779840393412655  |grad|_K:  2.884e-07  alpha:  2.836e-01  linmin:  2.092e-06  t[s]:   7080.90
	FillingsUpdate:  mu: -0.095923401  nElectrons: 117.000000
	SubspaceRotationAdjust: set factor to 0.136
ElecMinimize: Iter:  13  F: -553.779844545966398  |grad|_K:  1.909e-07  alpha:  3.699e-01  linmin: -3.289e-06  t[s]:   7100.66
	FillingsUpdate:  mu: -0.095948269  nElectrons: 117.000000
	SubspaceRotationAdjust: set factor to 0.144
ElecMinimize: Iter:  14  F: -553.779846551497712  |grad|_K:  1.311e-07  alpha:  4.071e-01  linmin:  8.847e-07  t[s]:   7120.52
	FillingsUpdate:  mu: -0.095561061  nElectrons: 117.000000

Dumping 'X.fillings' ... done
Dumping 'X.wfns' ... done
Dumping 'X.ionpos' ... done
Dumping 'X.force' ... done
Dumping 'X.eigenvals' ... done
	SubspaceRotationAdjust: set factor to 0.136
ElecMinimize: Iter:  15  F: -553.779847447428551  |grad|_K:  9.953e-08  alpha:  3.860e-01  linmin:  7.867e-06  t[s]:   7141.90
	FillingsUpdate:  mu: -0.095850995  nElectrons: 117.000000
	SubspaceRotationAdjust: set factor to 0.139
ElecMinimize: Iter:  16  F: -553.779847988727624  |grad|_K:  8.214e-08  alpha:  4.048e-01  linmin: -5.787e-05  t[s]:   7161.41
	FillingsUpdate:  mu: -0.095725215  nElectrons: 117.000000
	SubspaceRotationAdjust: set factor to 0.171
ElecMinimize: Iter:  17  F: -553.779848440678620  |grad|_K:  6.990e-08  alpha:  4.955e-01  linmin: -1.037e-05  t[s]:   7181.03
	FillingsUpdate:  mu: -0.095607865  nElectrons: 117.000000
	SubspaceRotationAdjust: set factor to 0.194
ElecMinimize: Iter:  18  F: -553.779848772363721  |grad|_K:  6.494e-08  alpha:  5.029e-01  linmin:  1.370e-05  t[s]:   7200.56
	FillingsUpdate:  mu: -0.095870468  nElectrons: 117.000000
	SubspaceRotationAdjust: set factor to 0.186
ElecMinimize: Iter:  19  F: -553.779848997086219  |grad|_K:  6.269e-08  alpha:  3.948e-01  linmin:  8.866e-07  t[s]:   7220.05
	FillingsUpdate:  mu: -0.095694240  nElectrons: 117.000000
	SubspaceRotationAdjust: set factor to 0.169
ElecMinimize: Iter:  20  F: -553.779849193160089  |grad|_K:  5.539e-08  alpha:  3.699e-01  linmin: -7.630e-06  t[s]:   7239.61
	FillingsUpdate:  mu: -0.095853859  nElectrons: 117.000000
	SubspaceRotationAdjust: set factor to 0.17
ElecMinimize: Iter:  21  F: -553.779849377292408  |grad|_K:  4.768e-08  alpha:  4.441e-01  linmin:  4.063e-06  t[s]:   7259.44
	FillingsUpdate:  mu: -0.095847311  nElectrons: 117.000000
	SubspaceRotationAdjust: set factor to 0.181
ElecMinimize: Iter:  22  F: -553.779849521033611  |grad|_K:  4.028e-08  alpha:  4.686e-01  linmin:  4.023e-06  t[s]:   7278.99
	FillingsUpdate:  mu: -0.095783314  nElectrons: 117.000000

Dumping 'X.fillings' ... done
Dumping 'X.wfns' ... done
Dumping 'X.ionpos' ... done
Dumping 'X.force' ... done
Dumping 'X.eigenvals' ... done
	SubspaceRotationAdjust: set factor to 0.179
ElecMinimize: Iter:  23  F: -553.779849616480874  |grad|_K:  3.233e-08  alpha:  4.365e-01  linmin: -5.576e-06  t[s]:   7303.07
	FillingsUpdate:  mu: -0.095864394  nElectrons: 117.000000
	SubspaceRotationAdjust: set factor to 0.15
ElecMinimize: Iter:  24  F: -553.779849670207341  |grad|_K:  2.637e-08  alpha:  3.801e-01  linmin:  3.895e-06  t[s]:   7322.60
	FillingsUpdate:  mu: -0.095761823  nElectrons: 117.000000
	SubspaceRotationAdjust: set factor to 0.117
ElecMinimize: Iter:  25  F: -553.779849700005911  |grad|_K:  1.977e-08  alpha:  3.184e-01  linmin:  4.393e-05  t[s]:   7342.17
	FillingsUpdate:  mu: -0.095780987  nElectrons: 117.000000
	SubspaceRotationAdjust: set factor to 0.129
ElecMinimize: Iter:  26  F: -553.779849721061169  |grad|_K:  1.519e-08  alpha:  3.957e-01  linmin: -2.123e-04  t[s]:   7361.93
	FillingsUpdate:  mu: -0.095804421  nElectrons: 117.000000
	SubspaceRotationAdjust: set factor to 0.133
ElecMinimize: Iter:  27  F: -553.779849735830226  |grad|_K:  1.339e-08  alpha:  4.486e-01  linmin: -5.529e-04  t[s]:   7381.68
	FillingsUpdate:  mu: -0.095761262  nElectrons: 117.000000
	SubspaceRotationAdjust: set factor to 0.13
ElecMinimize: Iter:  28  F: -553.779849746747914  |grad|_K:  1.147e-08  alpha:  4.343e-01  linmin:  1.176e-04  t[s]:   7402.14
	FillingsUpdate:  mu: -0.095774975  nElectrons: 117.000000
	SubspaceRotationAdjust: set factor to 0.149
ElecMinimize: Iter:  29  F: -553.779849754222141  |grad|_K:  8.968e-09  alpha:  4.173e-01  linmin: -4.788e-04  t[s]:   7421.94
	FillingsUpdate:  mu: -0.095786796  nElectrons: 117.000000
	SubspaceRotationAdjust: set factor to 0.166
ElecMinimize: Iter:  30  F: -553.779849759357944  |grad|_K:  8.058e-09  alpha:  4.623e-01  linmin:  1.056e-04  t[s]:   7441.68
ElecMinimize: Converged (|Delta F|<1.000000e-08 for 2 iters).
Setting wave functions to eigenvectors of Hamiltonian
Converging empty states (this may take a while): |deigs|: 4.943e-08

# Ionic positions in lattice coordinates:
ion Na  -0.000000000000000  -0.000000000000000   0.245759851873419 1
ion Na   0.500000000000000   0.500000000000000   0.287980418181142 1
ion Na   0.000000000000000  -0.000000000000000   0.329732593996418 1
ion Na   0.500000000000000   0.500000000000000   0.372227479376110 1
ion Na  -0.000000000000000  -0.000000000000000   0.415107413725956 1
ion Na   0.500000000000000   0.500000000000000   0.457738236896578 1
ion Na   0.000000000000000  -0.000000000000000   0.500000000000000 1
ion Na   0.500000000000000   0.500000000000000   0.542261763103422 1
ion Na  -0.000000000000000  -0.000000000000000   0.584892586274044 1
ion Na   0.500000000000000   0.500000000000000   0.627772520623890 1
ion Na   0.000000000000000   0.000000000000000   0.670267406003582 1
ion Na   0.500000000000000   0.500000000000000   0.712019581818858 1
ion Na  -0.000000000000000  -0.000000000000000   0.754240148126580 1

# Forces in Lattice coordinates:
force Na  -0.000000000000000  -0.000000000000000  -0.005629551004653 1
force Na   0.000000000000000   0.000000000000000   0.008031642333406 1
force Na   0.000000000000000   0.000000000000000  -0.000665583718485 1
force Na  -0.000000000000000   0.000000000000000   0.003699726882977 1
force Na   0.000000000000000  -0.000000000000000  -0.002479028493453 1
force Na   0.000000000000000   0.000000000000000  -0.002710479984002 1
force Na   0.000000000000000   0.000000000000000   0.000000000000000 1
force Na   0.000000000000000   0.000000000000000   0.002710479984002 1
force Na   0.000000000000000   0.000000000000000   0.002479028494363 1
force Na  -0.000000000000000   0.000000000000000  -0.003699726882977 1
force Na   0.000000000000000  -0.000000000000000   0.000665583718485 1
force Na   0.000000000000000  -0.000000000000000  -0.008031642334316 1
force Na   0.000000000000000  -0.000000000000000   0.005629551004653 1

# Energy components:
   Eewald =   -11879.3431387830041785
       EH =   -11435.4692156241926568
     Eloc =    22728.5545833517389838
      Enl =     -168.1097924737842391
   Epulay =       -0.0000000573352238
      Exc =      -81.4164685058123467
       KE =      282.0048368891451673
-------------------------------------
     Etot =     -553.7791952032443987
       TS =        0.0006545561135999
-------------------------------------
        F =     -553.7798497593579441


Dumping 'X.fillings' ... done
Dumping 'X.wfns' ... done
Dumping 'X.ionpos' ... done
Dumping 'X.force' ... done
Dumping 'X.lattice' ... done
Dumping 'X.eigenvals' ... done
Dumping 'X.dos' ... done.
IonicMinimize: Iter:  11  F: -553.779849759357944  |grad|_K:  2.710e-05  alpha:  3.000e+00  linmin:  1.010e-01  t[s]:   7468.35

#--- Lowdin population analysis ---
# oxidation-state Na +0.053 +0.046 +0.033 +0.055 +0.043 +0.037 +0.038 +0.037 +0.043 +0.055 +0.033 +0.046 +0.053


-------- Electronic minimization -----------
	FillingsUpdate:  mu: -0.095993685  nElectrons: 117.000000
ElecMinimize: Iter:   0  F: -553.779829137738147  |grad|_K:  7.307e-07  alpha:  1.000e+00
	FillingsUpdate:  mu: -0.095440033  nElectrons: 117.000000
	SubspaceRotationAdjust: set factor to 0.173
ElecMinimize: Iter:   1  F: -553.779849910149665  |grad|_K:  1.634e-07  alpha:  2.881e-01  linmin:  3.184e-05  t[s]:   7503.06
	FillingsUpdate:  mu: -0.095942185  nElectrons: 117.000000
	SubspaceRotationAdjust: set factor to 0.134
ElecMinimize: Iter:   2  F: -553.779851127755251  |grad|_K:  1.026e-07  alpha:  3.379e-01  linmin:  3.988e-06  t[s]:   7522.80
	FillingsUpdate:  mu: -0.095463195  nElectrons: 117.000000
	SubspaceRotationAdjust: set factor to 0.0804
ElecMinimize: Iter:   3  F: -553.779851479108174  |grad|_K:  6.057e-08  alpha:  2.471e-01  linmin: -1.729e-05  t[s]:   7542.55
	FillingsUpdate:  mu: -0.095584919  nElectrons: 117.000000
	SubspaceRotationAdjust: set factor to 0.101
ElecMinimize: Iter:   4  F: -553.779851708480464  |grad|_K:  4.160e-08  alpha:  4.612e-01  linmin: -1.317e-04  t[s]:   7562.87
	FillingsUpdate:  mu: -0.095770609  nElectrons: 117.000000
	SubspaceRotationAdjust: set factor to 0.0983
ElecMinimize: Iter:   5  F: -553.779851843789402  |grad|_K:  3.524e-08  alpha:  5.802e-01  linmin:  1.686e-04  t[s]:   7582.63
	FillingsUpdate:  mu: -0.095661951  nElectrons: 117.000000
	SubspaceRotationAdjust: set factor to 0.0835
ElecMinimize: Iter:   6  F: -553.779851935642796  |grad|_K:  2.974e-08  alpha:  5.516e-01  linmin:  2.214e-05  t[s]:   7602.43
	FillingsUpdate:  mu: -0.095765141  nElectrons: 117.000000

Dumping 'X.fillings' ... done
Dumping 'X.wfns' ... done
Dumping 'X.ionpos' ... done
Dumping 'X.force' ... done
Dumping 'X.eigenvals' ... done
	SubspaceRotationAdjust: set factor to 0.0899
ElecMinimize: Iter:   7  F: -553.779851997508217  |grad|_K:  2.255e-08  alpha:  5.171e-01  linmin: -1.237e-04  t[s]:   7634.93
	FillingsUpdate:  mu: -0.095823638  nElectrons: 117.000000
	SubspaceRotationAdjust: set factor to 0.0917
ElecMinimize: Iter:   8  F: -553.779852034815349  |grad|_K:  1.706e-08  alpha:  5.365e-01  linmin:  1.575e-04  t[s]:   7654.70
	FillingsUpdate:  mu: -0.095776999  nElectrons: 117.000000
	SubspaceRotationAdjust: set factor to 0.0904
ElecMinimize: Iter:   9  F: -553.779852057601147  |grad|_K:  1.413e-08  alpha:  5.699e-01  linmin: -7.188e-04  t[s]:   7674.48
	FillingsUpdate:  mu: -0.095779909  nElectrons: 117.000000
	SubspaceRotationAdjust: set factor to 0.0945
ElecMinimize: Iter:  10  F: -553.779852072530730  |grad|_K:  1.225e-08  alpha:  5.338e-01  linmin: -4.704e-04  t[s]:   7694.26
	FillingsUpdate:  mu: -0.095776263  nElectrons: 117.000000
	SubspaceRotationAdjust: set factor to 0.0959
ElecMinimize: Iter:  11  F: -553.779852083036189  |grad|_K:  9.990e-09  alpha:  5.023e-01  linmin: -4.319e-04  t[s]:   7714.36
	FillingsUpdate:  mu: -0.095756317  nElectrons: 117.000000
	SubspaceRotationAdjust: set factor to 0.0975
ElecMinimize: Iter:  12  F: -553.779852090079999  |grad|_K:  9.854e-09  alpha:  5.670e-01  linmin:  1.360e-03  t[s]:   7734.18
	FillingsUpdate:  mu: -0.095751889  nElectrons: 117.000000
	SubspaceRotationAdjust: set factor to 0.103
ElecMinimize: Iter:  13  F: -553.779852095034812  |grad|_K:  7.428e-09  alpha:  4.347e-01  linmin:  4.093e-05  t[s]:   7753.94
ElecMinimize: Converged (|Delta F|<1.000000e-08 for 2 iters).
Setting wave functions to eigenvectors of Hamiltonian
Converging empty states (this may take a while): |deigs|: 4.181e-09

# Ionic positions in lattice coordinates:
ion Na  -0.000000000000000   0.000000000000000   0.245746542501240 1
ion Na   0.500000000000000   0.500000000000000   0.288104088222280 1
ion Na   0.000000000000000  -0.000000000000000   0.329801218933353 1
ion Na   0.500000000000000   0.500000000000000   0.372286917117041 1
ion Na  -0.000000000000000  -0.000000000000000   0.415098945593958 1
ion Na   0.500000000000000   0.500000000000000   0.457691559858648 1
ion Na   0.000000000000000  -0.000000000000000   0.500000000000000 1
ion Na   0.500000000000000   0.500000000000000   0.542308440141352 1
ion Na  -0.000000000000000  -0.000000000000000   0.584901054406042 1
ion Na   0.500000000000000   0.500000000000000   0.627713082882959 1
ion Na   0.000000000000000   0.000000000000000   0.670198781066647 1
ion Na   0.500000000000000   0.500000000000000   0.711895911777719 1
ion Na  -0.000000000000000   0.000000000000000   0.754253457498760 1

# Forces in Lattice coordinates:
force Na  -0.000000000000000   0.000000000000000  -0.001081887106351 1
force Na   0.000000000000000  -0.000000000000000   0.002411660193453 1
force Na  -0.000000000000000  -0.000000000000000   0.000525984450149 1
force Na   0.000000000000000  -0.000000000000000   0.002084729132611 1
force Na   0.000000000000000  -0.000000000000000  -0.001324614594967 1
force Na  -0.000000000000000  -0.000000000000000   0.000357210755305 1
force Na   0.000000000000000  -0.000000000000000   0.000000000000000 1
force Na  -0.000000000000000   0.000000000000000  -0.000357210755305 1
force Na   0.000000000000000  -0.000000000000000   0.001324614595877 1
force Na   0.000000000000000   0.000000000000000  -0.002084729132611 1
force Na  -0.000000000000000   0.000000000000000  -0.000525984448330 1
force Na   0.000000000000000  -0.000000000000000  -0.002411660193453 1
force Na  -0.000000000000000   0.000000000000000   0.001081887106350 1

# Energy components:
   Eewald =   -11876.5517105766411987
       EH =   -11432.6739144905386638
     Eloc =    22722.9678964901759173
      Enl =     -168.1098045269297643
   Epulay =       -0.0000000573352238
      Exc =      -81.4164398867328742
       KE =      282.0047765469319074
-------------------------------------
     Etot =     -553.7791965010680997
       TS =        0.0006555939666566
-------------------------------------
        F =     -553.7798520950348120

IonicMinimize: Iter:  12  F: -553.779852095034812  |grad|_K:  8.946e-06  alpha:  1.000e+00  linmin: -7.894e-01  t[s]:   7774.54
IonicMinimize: Converged (|grad|_K<1.000000e-05).

#--- Lowdin population analysis ---
# oxidation-state Na +0.053 +0.046 +0.033 +0.055 +0.043 +0.037 +0.038 +0.037 +0.043 +0.055 +0.033 +0.046 +0.053


Dumping 'X.fillings' ... done
Dumping 'X.wfns' ... done
Dumping 'X.ionpos' ... done
Dumping 'X.lattice' ... done
Dumping 'X.n' ... done
Dumping 'X.eigenvals' ... done
Dumping 'X.eigStats' ... 
	eMin: -2.058165 at state 0 ( [ +0.000000 +0.000000 +0.000000 ] spin 0 )
	HOMO: -0.096005 at state 10 ( [ +0.090909 +0.454545 +0.000000 ] spin 0 )
	mu  : -0.095752
	LUMO: -0.095249 at state 16 ( [ +0.272727 +0.363636 +0.000000 ] spin 0 )
	eMax: -0.004338 at state 6 ( [ +0.090909 +0.090909 +0.000000 ] spin 0 )
	HOMO-LUMO gap: +0.000755
	Optical gap  : +0.003630 at state 10 ( [ +0.090909 +0.454545 +0.000000 ] spin 0 )
Dumping 'X.dos' ... done.
End date and time: Thu Nov  9 03:25:04 2023  (Duration: 0-2:09:37.58)
Done!
