
*************** JDFTx 1.7.0  ***************

Start date and time: Tue Oct 10 16:35:31 2023
Executable jdftx with command-line: -m -i X.in -o X.out
Running on hosts (process indices):  ac0019 (0-20)
Divided in process groups (process indices):  0 (0)  1 (1)  2 (2)  3 (3)  4 (4)  5 (5)  6 (6)  7 (7)  8 (8)  9 (9)  10 (10)  11 (11)  12 (12)  13 (13)  14 (14)  15 (15)  16 (16)  17 (17)  18 (18)  19 (19)  20 (20)
Resource initialization completed at t[s]:      0.02
Run totals: 21 processes, 21 threads, 0 GPUs


Input parsed successfully to the following command list (including defaults):

basis kpoint-dependent
cache-projectors no
coords-type Lattice
core-overlap-check vector
coulomb-interaction Slab 001
coulomb-truncation-embed 0 0 0.5
davidson-band-ratio 1.1
density-of-states Etol 1.000000e-06 Esigma 0.000000e+00 \
		Complete \
	Total \
		Occupied \
	Total
dump End State IonicPositions Lattice ElecDensity CoreDensity EigStats DOS
dump Electronic State Forces
dump Ionic State IonicPositions Forces Lattice DOS
dump-interval Electronic 8
dump-interval Ionic 4
dump-name X.$var
elec-cutoff 10
elec-eigen-algo Davidson
elec-ex-corr gga-PBE
elec-smearing Fermi 0.0095
electronic-minimize  \
	dirUpdateScheme      FletcherReeves \
	linminMethod         DirUpdateRecommended \
	nIterations          2000 \
	history              15 \
	knormThreshold       0 \
	energyDiffThreshold  1e-08 \
	nEnergyDiff          2 \
	alphaTstart          1 \
	alphaTmin            1e-10 \
	updateTestStepSize   yes \
	alphaTreduceFactor   0.1 \
	alphaTincreaseFactor 3 \
	nAlphaAdjustMax      3 \
	wolfeEnergy          0.0001 \
	wolfeGradient        0.9 \
	fdTest               no
exchange-regularization WignerSeitzTruncated
fluid None
fluid-ex-corr (null) lda-PZ
fluid-gummel-loop 10 1.000000e-05
fluid-minimize  \
	dirUpdateScheme      PolakRibiere \
	linminMethod         DirUpdateRecommended \
	nIterations          100 \
	history              15 \
	knormThreshold       0 \
	energyDiffThreshold  0 \
	nEnergyDiff          2 \
	alphaTstart          1 \
	alphaTmin            1e-10 \
	updateTestStepSize   yes \
	alphaTreduceFactor   0.1 \
	alphaTincreaseFactor 3 \
	nAlphaAdjustMax      3 \
	wolfeEnergy          0.0001 \
	wolfeGradient        0.9 \
	fdTest               no
fluid-solvent H2O 55.338 ScalarEOS \
	epsBulk 78.4 \
	pMol 0.92466 \
	epsInf 1.77 \
	Pvap 1.06736e-10 \
	sigmaBulk 4.62e-05 \
	Rvdw 2.61727 \
	Res 1.42 \
	tauNuc 343133 \
	poleEl 15 7 1
forces-output-coords Positions
initial-state X.$var
ion Na   0.000000000000000   0.000000000000000   0.310080000000000 1
ion Na   0.500000000000000   0.500000000000000   0.364340000000000 1
ion Na   0.000000000000000   0.000000000000000   0.418610000000000 1
ion Na   0.500000000000000   0.500000000000000   0.472870000000000 1
ion Na   0.000000000000000   0.000000000000000   0.527130000000000 1
ion Na   0.500000000000000   0.500000000000000   0.581390000000000 1
ion Na   0.000000000000000   0.000000000000000   0.635660000000000 1
ion Na   0.500000000000000   0.500000000000000   0.689920000000000 1
ion-species SG15/$ID_ONCV_PBE.upf
ion-width 0
ionic-minimize  \
	dirUpdateScheme      L-BFGS \
	linminMethod         DirUpdateRecommended \
	nIterations          0 \
	history              15 \
	knormThreshold       0.0001 \
	energyDiffThreshold  1e-06 \
	nEnergyDiff          2 \
	alphaTstart          1 \
	alphaTmin            1e-10 \
	updateTestStepSize   yes \
	alphaTreduceFactor   0.1 \
	alphaTincreaseFactor 3 \
	nAlphaAdjustMax      3 \
	wolfeEnergy          0.0001 \
	wolfeGradient        0.9 \
	fdTest               no
kpoint   0.000000000000   0.000000000000   0.000000000000  1.00000000000000
kpoint-folding 11 11 1 
latt-move-scale 1 1 1
latt-scale 1.88973 1.88973 1.88973 
lattice  \
	   4.199920000000001   -0.000000000000000   -0.000000000000000  \
	   0.000000000000000    4.199920000000001   -0.000000000000000  \
	   0.000000000000000    0.000000000000000   38.699700000000000 
lattice-minimize  \
	dirUpdateScheme      L-BFGS \
	linminMethod         DirUpdateRecommended \
	nIterations          0 \
	history              15 \
	knormThreshold       0 \
	energyDiffThreshold  1e-06 \
	nEnergyDiff          2 \
	alphaTstart          1 \
	alphaTmin            1e-10 \
	updateTestStepSize   yes \
	alphaTreduceFactor   0.1 \
	alphaTincreaseFactor 3 \
	nAlphaAdjustMax      3 \
	wolfeEnergy          0.0001 \
	wolfeGradient        0.9 \
	fdTest               no
lcao-params -1 1e-06 0.0095
pcm-variant GLSSA13
spintype no-spin
subspace-rotation-factor 1 yes
symmetries automatic
symmetry-threshold 0.0001



---------- Setting up symmetries ----------

Found 16 point-group symmetries of the bravais lattice
Found 16 space-group symmetries with basis
Applied RMS atom displacement 0 bohrs to make symmetries exact.

---------- Initializing the Grid ----------
R = 
[      7.93671            0            0  ]
[            0      7.93671            0  ]
[            0            0       73.132  ]
unit cell volume = 4606.69
G =
[   0.791661          0          0  ]
[         -0   0.791661          0  ]
[          0         -0  0.0859157  ]
Minimum fftbox size, Smin = [  24  24  212  ]
Chosen fftbox size, S = [  24  24  216  ]

---------- Exchange Correlation functional ----------
Initalized PBE GGA exchange.
Initalized PBE GGA correlation.

---------- Setting up pseudopotentials ----------
Width of ionic core gaussian charges (only for fluid interactions / plotting) set to 0

Reading pseudopotential file '/net/software/testing/software/jdftx/1.7.0-foss-2021b-mkl/share/jdftx/pseudopotentials/SG15/Na_ONCV_PBE.upf':
  'Na' pseudopotential, 'PBE' functional
  Generated using ONCVPSP code by D. R. Hamann
  Author: Martin Schlipf and Francois Gygi  Date: 150915.
  9 valence electrons, 3 orbitals, 4 projectors, 1992 radial grid points, with lMax = 1
  Transforming local potential to a uniform radial grid of dG=0.02 with 822 points.
  Transforming nonlocal projectors to a uniform radial grid of dG=0.02 with 307 points.
    2S    l: 0   occupation:  2.0   eigenvalue: -2.085640
    2P    l: 1   occupation:  6.0   eigenvalue: -1.053708
    3S    l: 0   occupation:  1.0   eigenvalue: -0.100838
  Transforming atomic orbitals to a uniform radial grid of dG=0.02 with 307 points.
  Core radius for overlap checks: 2.01 bohrs.
  Reading pulay file /net/software/testing/software/jdftx/1.7.0-foss-2021b-mkl/share/jdftx/pseudopotentials/SG15/Na_ONCV_PBE.pulay ... using dE_dnG = -1.681960e+00 computed for Ecut = 10.

Initialized 1 species with 8 total atoms.

Folded 1 k-points by 11x11x1 to 121 k-points.

---------- Setting up k-points, bands, fillings ----------
Reduced to 21 k-points under symmetry. 
Computing the number of bands and number of electrons
Calculating initial fillings.
nElectrons:  72.000000   nBands: 40   nStates: 21

----- Setting up reduced wavefunction bases (one per k-point) -----
average nbasis = 6955.612 , ideal nbasis = 6957.976

----- Initializing Supercell corresponding to k-point mesh -----
Lattice vector linear combinations in supercell:
[  11   0   0  ]
[   0  11   0  ]
[   0   0   1  ]
Supercell lattice vectors:
[  87.3039  0  0  ]
[  0  87.3039  0  ]
[  0  0  73.132  ]

---------- Setting up coulomb interaction ----------
Setting up double-sized grid for truncated Coulomb potentials:
R = 
[      7.93671            0            0  ]
[            0      7.93671            0  ]
[            0            0      146.264  ]
unit cell volume = 9213.38
G =
[   0.791661          0          0  ]
[         -0   0.791661          0  ]
[          0         -0  0.0429578  ]
Chosen fftbox size, S = [  24  24  432  ]
Integer grid location selected as the embedding center:
   Grid: [  0  0  108  ]
   Lattice: [  0  0  0.5  ]
   Cartesian: [  0  0  36.566  ]
Constructing Wigner-Seitz cell: 6 faces (6 quadrilaterals, 0 hexagons)
Range-separation parameter for embedded mesh potentials due to point charges: 0.734069 bohrs.
Initialized slab truncation along lattice direction 001

---------- Setting up 2D ewald sum ----------
Optimum gaussian width for ewald sums = 4.734710 bohr.
Real space sums over 225 unit cells with max indices [  7  7  0  ]
Reciprocal space sums over 81 terms with max indices [  4  4  0  ]

---------- Allocating electronic variables ----------
Initializing wave functions:  linear combination of atomic orbitals
Na pseudo-atom occupations:   s ( 2 1 )  p ( 6 )
	FillingsUpdate:  mu: -0.004137421  nElectrons: 72.000000
LCAOMinimize: Iter:   0  F: -333.3638189583180633  |grad|_K:  4.092e-03  alpha:  1.000e+00
	FillingsUpdate:  mu: -0.183159812  nElectrons: 72.000000
LCAOMinimize: Iter:   1  F: -333.3846995455007800  |grad|_K:  1.480e-03  alpha:  1.006e-01  linmin:  1.515e-01  cgtest: -8.717e-01  t[s]:      0.93
LCAOMinimize: 	Bad step direction: g.d > 0.
LCAOMinimize: 	Undoing step.
LCAOMinimize: 	Step failed: resetting search direction.
	FillingsUpdate:  mu: -0.183159812  nElectrons: 72.000000
LCAOMinimize: Iter:   2  F: -333.3846995455007800  |grad|_K:  1.480e-03  alpha:  0.000e+00
	FillingsUpdate:  mu: -0.133894395  nElectrons: 72.000000
LCAOMinimize: Iter:   3  F: -333.3879229436597598  |grad|_K:  4.903e-04  alpha:  8.335e-02  linmin:  1.077e-04  cgtest:  7.489e-04  t[s]:      1.43
LCAOMinimize: 	Predicted alpha/alphaT>3.000000, increasing alphaT to 2.500521e-01.
	FillingsUpdate:  mu: -0.145382131  nElectrons: 72.000000
LCAOMinimize: Iter:   4  F: -333.3909969908867197  |grad|_K:  1.788e-04  alpha:  6.925e-01  linmin: -6.330e-03  cgtest:  2.700e-01  t[s]:      1.86
	FillingsUpdate:  mu: -0.138878777  nElectrons: 72.000000
LCAOMinimize: Iter:   5  F: -333.3912271327694725  |grad|_K:  6.456e-05  alpha:  3.995e-01  linmin:  5.503e-06  cgtest: -6.875e-02  t[s]:      2.17
	FillingsUpdate:  mu: -0.141847434  nElectrons: 72.000000
LCAOMinimize: Iter:   6  F: -333.3912414537899167  |grad|_K:  7.184e-05  alpha:  1.944e-01  linmin: -1.727e-05  cgtest:  4.424e-03  t[s]:      2.48
	FillingsUpdate:  mu: -0.140802550  nElectrons: 72.000000
LCAOMinimize: Iter:   7  F: -333.3912681443409269  |grad|_K:  2.566e-06  alpha:  2.922e-01  linmin: -2.399e-03  cgtest: -1.576e-01  t[s]:      2.78
	FillingsUpdate:  mu: -0.140713135  nElectrons: 72.000000
LCAOMinimize: Iter:   8  F: -333.3912681931510633  |grad|_K:  6.724e-07  alpha:  4.098e-01  linmin:  2.617e-04  cgtest: -1.169e-01  t[s]:      3.09
	FillingsUpdate:  mu: -0.140740561  nElectrons: 72.000000
LCAOMinimize: Iter:   9  F: -333.3912681943501752  |grad|_K:  6.021e-07  alpha:  1.484e-01  linmin:  5.047e-04  cgtest: -5.373e-03  t[s]:      3.40
LCAOMinimize: Converged (|Delta F|<1.000000e-06 for 2 iters).


---- Citations for features of the code used in this run ----

   Software package:
      R. Sundararaman, K. Letchworth-Weaver, K.A. Schwarz, D. Gunceler, Y. Ozhabes and T.A. Arias, 'JDFTx: software for joint density-functional theory', SoftwareX 6, 278 (2017)

   gga-PBE exchange-correlation functional:
      J.P. Perdew, K. Burke and M. Ernzerhof, Phys. Rev. Lett. 77, 3865 (1996)

   Pseudopotentials:
      M Schlipf and F Gygi, Comput. Phys. Commun. 196, 36 (2015)

   Truncated Coulomb potentials:
      R. Sundararaman and T.A. Arias, Phys. Rev. B 87, 165122 (2013)

   Total energy minimization with Auxiliary Hamiltonian:
      C. Freysoldt, S. Boeck, and J. Neugebauer, Phys. Rev. B 79, 241103(R) (2009)

   Linear-tetrahedron sampling for density of states:
      G. Lehmann and M. Taut, Phys. status solidi (b) 54, 469 (1972)

This list may not be complete. Please suggest additional citations or
report any other bugs at https://github.com/shankar1729/jdftx/issues

Initialization completed successfully at t[s]:      3.44


-------- Electronic minimization -----------
	FillingsUpdate:  mu: -0.140740561  nElectrons: 72.000000
ElecMinimize: Iter:   0  F: -333.391268194348356  |grad|_K:  5.291e-04  alpha:  1.000e+00
	FillingsUpdate:  mu: -0.128769374  nElectrons: 72.000000
	SubspaceRotationAdjust: set factor to 1
ElecMinimize: Iter:   1  F: -333.868650480366455  |grad|_K:  1.348e-04  alpha:  2.918e-01  linmin:  3.205e-03  t[s]:      4.20
	FillingsUpdate:  mu: -0.143780191  nElectrons: 72.000000
	SubspaceRotationAdjust: set factor to 0.987
ElecMinimize: Iter:   2  F: -333.905949578054276  |grad|_K:  6.132e-05  alpha:  3.517e-01  linmin:  8.431e-06  t[s]:      4.67
	FillingsUpdate:  mu: -0.092895465  nElectrons: 72.000000
	SubspaceRotationAdjust: set factor to 0.658
ElecMinimize: Iter:   3  F: -333.913091665191246  |grad|_K:  7.847e-05  alpha:  3.242e-01  linmin:  8.761e-06  t[s]:      5.13
	FillingsUpdate:  mu: -0.136324591  nElectrons: 72.000000
	SubspaceRotationAdjust: set factor to 0.435
ElecMinimize: Iter:   4  F: -333.919092248671120  |grad|_K:  4.756e-05  alpha:  1.647e-01  linmin: -4.469e-05  t[s]:      5.60
ElecMinimize: 	Predicted alpha/alphaT>3.000000, increasing alphaT to 4.939791e-01.
	FillingsUpdate:  mu: -0.147457127  nElectrons: 72.000000
	SubspaceRotationAdjust: set factor to 0.511
ElecMinimize: Iter:   5  F: -333.927746125517785  |grad|_K:  5.298e-05  alpha:  6.500e-01  linmin:  2.577e-05  t[s]:      6.23
	FillingsUpdate:  mu: -0.097854518  nElectrons: 72.000000
	SubspaceRotationAdjust: set factor to 0.366
ElecMinimize: Iter:   6  F: -333.933471201718987  |grad|_K:  4.460e-05  alpha:  3.426e-01  linmin: -1.067e-04  t[s]:      6.70
	FillingsUpdate:  mu: -0.115941895  nElectrons: 72.000000

Dumping 'X.fillings' ... done
Dumping 'X.wfns' ... done
Dumping 'X.force' ... done
Dumping 'X.eigenvals' ... done
	SubspaceRotationAdjust: set factor to 0.34
ElecMinimize: Iter:   7  F: -333.937792928383828  |grad|_K:  3.037e-05  alpha:  3.664e-01  linmin:  7.422e-05  t[s]:      7.81
	FillingsUpdate:  mu: -0.119485241  nElectrons: 72.000000
	SubspaceRotationAdjust: set factor to 0.366
ElecMinimize: Iter:   8  F: -333.940070356572107  |grad|_K:  2.315e-05  alpha:  4.223e-01  linmin:  6.153e-06  t[s]:      8.28
	FillingsUpdate:  mu: -0.104423634  nElectrons: 72.000000
	SubspaceRotationAdjust: set factor to 0.315
ElecMinimize: Iter:   9  F: -333.941367883583553  |grad|_K:  1.837e-05  alpha:  4.133e-01  linmin:  1.192e-05  t[s]:      8.75
	FillingsUpdate:  mu: -0.113089079  nElectrons: 72.000000
	SubspaceRotationAdjust: set factor to 0.304
ElecMinimize: Iter:  10  F: -333.942318504213745  |grad|_K:  1.595e-05  alpha:  4.819e-01  linmin:  4.389e-06  t[s]:      9.22
	FillingsUpdate:  mu: -0.114557929  nElectrons: 72.000000
	SubspaceRotationAdjust: set factor to 0.317
ElecMinimize: Iter:  11  F: -333.943056309058647  |grad|_K:  1.421e-05  alpha:  4.959e-01  linmin:  2.462e-06  t[s]:      9.69
	FillingsUpdate:  mu: -0.108532704  nElectrons: 72.000000
	SubspaceRotationAdjust: set factor to 0.296
ElecMinimize: Iter:  12  F: -333.943600935457141  |grad|_K:  1.190e-05  alpha:  4.608e-01  linmin:  3.066e-06  t[s]:     10.16
	FillingsUpdate:  mu: -0.112796433  nElectrons: 72.000000
	SubspaceRotationAdjust: set factor to 0.293
ElecMinimize: Iter:  13  F: -333.943984450475284  |grad|_K:  9.244e-06  alpha:  4.628e-01  linmin:  3.604e-06  t[s]:     10.62
	FillingsUpdate:  mu: -0.113498417  nElectrons: 72.000000
	SubspaceRotationAdjust: set factor to 0.307
ElecMinimize: Iter:  14  F: -333.944208976516393  |grad|_K:  7.686e-06  alpha:  4.488e-01  linmin:  2.370e-06  t[s]:     11.09
	FillingsUpdate:  mu: -0.110977274  nElectrons: 72.000000

Dumping 'X.fillings' ... done
Dumping 'X.wfns' ... done
Dumping 'X.force' ... done
Dumping 'X.eigenvals' ... done
	SubspaceRotationAdjust: set factor to 0.307
ElecMinimize: Iter:  15  F: -333.944373595236584  |grad|_K:  6.865e-06  alpha:  4.757e-01  linmin:  1.391e-05  t[s]:     11.72
	FillingsUpdate:  mu: -0.113000712  nElectrons: 72.000000
	SubspaceRotationAdjust: set factor to 0.313
ElecMinimize: Iter:  16  F: -333.944523965312214  |grad|_K:  6.460e-06  alpha:  5.449e-01  linmin:  1.100e-05  t[s]:     12.18
	FillingsUpdate:  mu: -0.113352670  nElectrons: 72.000000
	SubspaceRotationAdjust: set factor to 0.324
ElecMinimize: Iter:  17  F: -333.944645915336537  |grad|_K:  5.748e-06  alpha:  4.994e-01  linmin:  4.331e-06  t[s]:     12.65
	FillingsUpdate:  mu: -0.111866965  nElectrons: 72.000000
	SubspaceRotationAdjust: set factor to 0.319
ElecMinimize: Iter:  18  F: -333.944732951463777  |grad|_K:  4.694e-06  alpha:  4.499e-01  linmin:  2.607e-06  t[s]:     13.12
	FillingsUpdate:  mu: -0.113468223  nElectrons: 72.000000
	SubspaceRotationAdjust: set factor to 0.312
ElecMinimize: Iter:  19  F: -333.944794579233076  |grad|_K:  4.015e-06  alpha:  4.778e-01  linmin:  4.551e-06  t[s]:     13.59
	FillingsUpdate:  mu: -0.113400447  nElectrons: 72.000000
	SubspaceRotationAdjust: set factor to 0.32
ElecMinimize: Iter:  20  F: -333.944840263237609  |grad|_K:  3.578e-06  alpha:  4.842e-01  linmin:  1.707e-06  t[s]:     14.05
	FillingsUpdate:  mu: -0.112520813  nElectrons: 72.000000
	SubspaceRotationAdjust: set factor to 0.317
ElecMinimize: Iter:  21  F: -333.944876542289308  |grad|_K:  3.162e-06  alpha:  4.840e-01  linmin:  1.404e-06  t[s]:     14.52
	FillingsUpdate:  mu: -0.113783009  nElectrons: 72.000000
	SubspaceRotationAdjust: set factor to 0.311
ElecMinimize: Iter:  22  F: -333.944905487101096  |grad|_K:  2.781e-06  alpha:  4.942e-01  linmin:  3.878e-06  t[s]:     14.99
	FillingsUpdate:  mu: -0.113655550  nElectrons: 72.000000

Dumping 'X.fillings' ... done
Dumping 'X.wfns' ... done
Dumping 'X.force' ... done
Dumping 'X.eigenvals' ... done
	SubspaceRotationAdjust: set factor to 0.327
ElecMinimize: Iter:  23  F: -333.944927101760697  |grad|_K:  2.412e-06  alpha:  4.771e-01  linmin: -4.827e-06  t[s]:     15.57
	FillingsUpdate:  mu: -0.112980022  nElectrons: 72.000000
	SubspaceRotationAdjust: set factor to 0.33
ElecMinimize: Iter:  24  F: -333.944943404874437  |grad|_K:  2.124e-06  alpha:  4.781e-01  linmin: -6.543e-07  t[s]:     16.06
	FillingsUpdate:  mu: -0.113800738  nElectrons: 72.000000
	SubspaceRotationAdjust: set factor to 0.324
ElecMinimize: Iter:  25  F: -333.944956183655904  |grad|_K:  1.829e-06  alpha:  4.832e-01  linmin: -7.573e-07  t[s]:     16.53
	FillingsUpdate:  mu: -0.113635133  nElectrons: 72.000000
	SubspaceRotationAdjust: set factor to 0.337
ElecMinimize: Iter:  26  F: -333.944965462408447  |grad|_K:  1.560e-06  alpha:  4.734e-01  linmin: -6.461e-07  t[s]:     17.00
	FillingsUpdate:  mu: -0.113205125  nElectrons: 72.000000
	SubspaceRotationAdjust: set factor to 0.334
ElecMinimize: Iter:  27  F: -333.944972003097405  |grad|_K:  1.290e-06  alpha:  4.588e-01  linmin: -3.920e-07  t[s]:     17.46
	FillingsUpdate:  mu: -0.113630259  nElectrons: 72.000000
	SubspaceRotationAdjust: set factor to 0.319
ElecMinimize: Iter:  28  F: -333.944976355735491  |grad|_K:  1.028e-06  alpha:  4.465e-01  linmin: -2.842e-07  t[s]:     17.93
	FillingsUpdate:  mu: -0.113454312  nElectrons: 72.000000
	SubspaceRotationAdjust: set factor to 0.328
ElecMinimize: Iter:  29  F: -333.944979102761749  |grad|_K:  8.247e-07  alpha:  4.436e-01  linmin: -1.154e-08  t[s]:     18.40
	FillingsUpdate:  mu: -0.113271641  nElectrons: 72.000000
	SubspaceRotationAdjust: set factor to 0.332
ElecMinimize: Iter:  30  F: -333.944980934878231  |grad|_K:  6.927e-07  alpha:  4.598e-01  linmin:  2.445e-07  t[s]:     18.87
	FillingsUpdate:  mu: -0.113476727  nElectrons: 72.000000

Dumping 'X.fillings' ... done
Dumping 'X.wfns' ... done
Dumping 'X.force' ... done
Dumping 'X.eigenvals' ... done
	SubspaceRotationAdjust: set factor to 0.327
ElecMinimize: Iter:  31  F: -333.944982249936231  |grad|_K:  5.802e-07  alpha:  4.677e-01  linmin: -1.504e-06  t[s]:     19.48
	FillingsUpdate:  mu: -0.113370653  nElectrons: 72.000000
	SubspaceRotationAdjust: set factor to 0.338
ElecMinimize: Iter:  32  F: -333.944983143217371  |grad|_K:  4.664e-07  alpha:  4.529e-01  linmin: -7.347e-09  t[s]:     19.95
	FillingsUpdate:  mu: -0.113317477  nElectrons: 72.000000
	SubspaceRotationAdjust: set factor to 0.349
ElecMinimize: Iter:  33  F: -333.944983713924785  |grad|_K:  3.787e-07  alpha:  4.478e-01  linmin:  2.607e-07  t[s]:     20.41
	FillingsUpdate:  mu: -0.113428798  nElectrons: 72.000000
	SubspaceRotationAdjust: set factor to 0.345
ElecMinimize: Iter:  34  F: -333.944984094044401  |grad|_K:  3.111e-07  alpha:  4.524e-01  linmin:  2.404e-07  t[s]:     20.88
	FillingsUpdate:  mu: -0.113349884  nElectrons: 72.000000
	SubspaceRotationAdjust: set factor to 0.343
ElecMinimize: Iter:  35  F: -333.944984356739326  |grad|_K:  2.640e-07  alpha:  4.631e-01  linmin: -8.969e-07  t[s]:     21.35
	FillingsUpdate:  mu: -0.113354282  nElectrons: 72.000000
	SubspaceRotationAdjust: set factor to 0.348
ElecMinimize: Iter:  36  F: -333.944984555945268  |grad|_K:  2.347e-07  alpha:  4.876e-01  linmin: -8.329e-08  t[s]:     21.82
	FillingsUpdate:  mu: -0.113409597  nElectrons: 72.000000
	SubspaceRotationAdjust: set factor to 0.345
ElecMinimize: Iter:  37  F: -333.944984718388412  |grad|_K:  2.162e-07  alpha:  5.033e-01  linmin:  3.057e-06  t[s]:     22.28
	FillingsUpdate:  mu: -0.113329999  nElectrons: 72.000000
	SubspaceRotationAdjust: set factor to 0.337
ElecMinimize: Iter:  38  F: -333.944984858656085  |grad|_K:  2.069e-07  alpha:  5.126e-01  linmin: -1.401e-06  t[s]:     22.75
	FillingsUpdate:  mu: -0.113354966  nElectrons: 72.000000

Dumping 'X.fillings' ... done
Dumping 'X.wfns' ... done
Dumping 'X.force' ... done
Dumping 'X.eigenvals' ... done
	SubspaceRotationAdjust: set factor to 0.344
ElecMinimize: Iter:  39  F: -333.944984998829852  |grad|_K:  2.113e-07  alpha:  5.593e-01  linmin:  7.368e-06  t[s]:     23.36
	FillingsUpdate:  mu: -0.113389162  nElectrons: 72.000000
	SubspaceRotationAdjust: set factor to 0.35
ElecMinimize: Iter:  40  F: -333.944985151065396  |grad|_K:  2.232e-07  alpha:  5.823e-01  linmin: -1.340e-06  t[s]:     23.82
	FillingsUpdate:  mu: -0.113300731  nElectrons: 72.000000
	SubspaceRotationAdjust: set factor to 0.342
ElecMinimize: Iter:  41  F: -333.944985314789562  |grad|_K:  2.291e-07  alpha:  5.605e-01  linmin:  1.004e-07  t[s]:     24.29
	FillingsUpdate:  mu: -0.113354390  nElectrons: 72.000000
	SubspaceRotationAdjust: set factor to 0.343
ElecMinimize: Iter:  42  F: -333.944985490167653  |grad|_K:  2.357e-07  alpha:  5.698e-01  linmin: -9.582e-07  t[s]:     24.76
	FillingsUpdate:  mu: -0.113372638  nElectrons: 72.000000
	SubspaceRotationAdjust: set factor to 0.35
ElecMinimize: Iter:  43  F: -333.944985672895484  |grad|_K:  2.373e-07  alpha:  5.613e-01  linmin:  1.299e-06  t[s]:     25.22
	FillingsUpdate:  mu: -0.113301262  nElectrons: 72.000000
	SubspaceRotationAdjust: set factor to 0.344
ElecMinimize: Iter:  44  F: -333.944985849283967  |grad|_K:  2.317e-07  alpha:  5.351e-01  linmin: -1.765e-06  t[s]:     25.69
	FillingsUpdate:  mu: -0.113374240  nElectrons: 72.000000
	SubspaceRotationAdjust: set factor to 0.341
ElecMinimize: Iter:  45  F: -333.944986016295331  |grad|_K:  2.227e-07  alpha:  5.305e-01  linmin:  3.493e-07  t[s]:     26.16
	FillingsUpdate:  mu: -0.113368808  nElectrons: 72.000000
	SubspaceRotationAdjust: set factor to 0.35
ElecMinimize: Iter:  46  F: -333.944986171168864  |grad|_K:  2.151e-07  alpha:  5.331e-01  linmin:  1.887e-06  t[s]:     26.63
	FillingsUpdate:  mu: -0.113325914  nElectrons: 72.000000

Dumping 'X.fillings' ... done
Dumping 'X.wfns' ... done
Dumping 'X.force' ... done
Dumping 'X.eigenvals' ... done
	SubspaceRotationAdjust: set factor to 0.353
ElecMinimize: Iter:  47  F: -333.944986316721554  |grad|_K:  2.126e-07  alpha:  5.372e-01  linmin:  2.363e-06  t[s]:     27.20
	FillingsUpdate:  mu: -0.113398600  nElectrons: 72.000000
	SubspaceRotationAdjust: set factor to 0.348
ElecMinimize: Iter:  48  F: -333.944986462097575  |grad|_K:  2.144e-07  alpha:  5.493e-01  linmin:  3.062e-09  t[s]:     27.66
	FillingsUpdate:  mu: -0.113363146  nElectrons: 72.000000
	SubspaceRotationAdjust: set factor to 0.35
ElecMinimize: Iter:  49  F: -333.944986615876985  |grad|_K:  2.231e-07  alpha:  5.709e-01  linmin: -1.561e-06  t[s]:     28.13
	FillingsUpdate:  mu: -0.113341327  nElectrons: 72.000000
	SubspaceRotationAdjust: set factor to 0.355
ElecMinimize: Iter:  50  F: -333.944986787200889  |grad|_K:  2.391e-07  alpha:  5.874e-01  linmin: -1.916e-06  t[s]:     28.60
	FillingsUpdate:  mu: -0.113413407  nElectrons: 72.000000
	SubspaceRotationAdjust: set factor to 0.351
ElecMinimize: Iter:  51  F: -333.944986987839798  |grad|_K:  2.622e-07  alpha:  5.987e-01  linmin: -4.239e-06  t[s]:     29.06
	FillingsUpdate:  mu: -0.113329194  nElectrons: 72.000000
	SubspaceRotationAdjust: set factor to 0.35
ElecMinimize: Iter:  52  F: -333.944987239817578  |grad|_K:  2.953e-07  alpha:  6.243e-01  linmin: -1.088e-05  t[s]:     29.53
	FillingsUpdate:  mu: -0.113337534  nElectrons: 72.000000
	SubspaceRotationAdjust: set factor to 0.36
ElecMinimize: Iter:  53  F: -333.944987565363874  |grad|_K:  3.340e-07  alpha:  6.346e-01  linmin: -4.026e-06  t[s]:     30.00
	FillingsUpdate:  mu: -0.113392295  nElectrons: 72.000000
	SubspaceRotationAdjust: set factor to 0.365
ElecMinimize: Iter:  54  F: -333.944987921068389  |grad|_K:  3.220e-07  alpha:  5.251e-01  linmin:  6.647e-05  t[s]:     30.46
	FillingsUpdate:  mu: -0.113334505  nElectrons: 72.000000

Dumping 'X.fillings' ... done
Dumping 'X.wfns' ... done
Dumping 'X.force' ... done
Dumping 'X.eigenvals' ... done
	SubspaceRotationAdjust: set factor to 0.391
ElecMinimize: Iter:  55  F: -333.944988113629051  |grad|_K:  2.572e-07  alpha:  2.932e-01  linmin: -1.893e-04  t[s]:     31.03
	FillingsUpdate:  mu: -0.113306937  nElectrons: 72.000000
	SubspaceRotationAdjust: set factor to 0.462
ElecMinimize: Iter:  56  F: -333.944988230836941  |grad|_K:  2.409e-07  alpha:  2.863e-01  linmin:  8.107e-05  t[s]:     31.50
	FillingsUpdate:  mu: -0.113342367  nElectrons: 72.000000
	SubspaceRotationAdjust: set factor to 0.585
ElecMinimize: Iter:  57  F: -333.944988329324929  |grad|_K:  2.519e-07  alpha:  2.970e-01  linmin:  4.055e-05  t[s]:     31.97
	FillingsUpdate:  mu: -0.113373071  nElectrons: 72.000000
	SubspaceRotationAdjust: set factor to 0.711
ElecMinimize: Iter:  58  F: -333.944988429245484  |grad|_K:  2.687e-07  alpha:  2.731e-01  linmin:  6.023e-06  t[s]:     32.44
	FillingsUpdate:  mu: -0.113332237  nElectrons: 72.000000
	SubspaceRotationAdjust: set factor to 0.945
ElecMinimize: Iter:  59  F: -333.944988535389939  |grad|_K:  2.777e-07  alpha:  2.517e-01  linmin: -5.101e-06  t[s]:     32.90
	FillingsUpdate:  mu: -0.113319088  nElectrons: 72.000000
	SubspaceRotationAdjust: set factor to 1.23
ElecMinimize: Iter:  60  F: -333.944988636813150  |grad|_K:  2.630e-07  alpha:  2.247e-01  linmin: -2.719e-05  t[s]:     33.37
	FillingsUpdate:  mu: -0.113373397  nElectrons: 72.000000
	SubspaceRotationAdjust: set factor to 1.42
ElecMinimize: Iter:  61  F: -333.944988714213707  |grad|_K:  2.376e-07  alpha:  1.901e-01  linmin: -4.646e-05  t[s]:     33.84
	FillingsUpdate:  mu: -0.113301311  nElectrons: 72.000000
	SubspaceRotationAdjust: set factor to 1.45
ElecMinimize: Iter:  62  F: -333.944988775163040  |grad|_K:  2.095e-07  alpha:  1.816e-01  linmin: -8.795e-05  t[s]:     34.30
	FillingsUpdate:  mu: -0.113368393  nElectrons: 72.000000

Dumping 'X.fillings' ... done
Dumping 'X.wfns' ... done
Dumping 'X.force' ... done
Dumping 'X.eigenvals' ... done
	SubspaceRotationAdjust: set factor to 1.3
ElecMinimize: Iter:  63  F: -333.944988823482447  |grad|_K:  1.969e-07  alpha:  1.831e-01  linmin: -4.285e-05  t[s]:     34.90
	FillingsUpdate:  mu: -0.113273718  nElectrons: 72.000000
	SubspaceRotationAdjust: set factor to 1.07
ElecMinimize: Iter:  64  F: -333.944988859221723  |grad|_K:  1.873e-07  alpha:  1.547e-01  linmin: -9.277e-06  t[s]:     35.37
	FillingsUpdate:  mu: -0.113338487  nElectrons: 72.000000
	SubspaceRotationAdjust: set factor to 1.03
ElecMinimize: Iter:  65  F: -333.944988897597739  |grad|_K:  1.635e-07  alpha:  1.853e-01  linmin: -3.413e-06  t[s]:     35.84
	FillingsUpdate:  mu: -0.113308375  nElectrons: 72.000000
	SubspaceRotationAdjust: set factor to 1.23
ElecMinimize: Iter:  66  F: -333.944988941328802  |grad|_K:  1.615e-07  alpha:  2.790e-01  linmin:  4.266e-06  t[s]:     36.30
	FillingsUpdate:  mu: -0.113296839  nElectrons: 72.000000
	SubspaceRotationAdjust: set factor to 1.5
ElecMinimize: Iter:  67  F: -333.944988993531069  |grad|_K:  1.864e-07  alpha:  3.424e-01  linmin:  4.181e-06  t[s]:     36.77
	FillingsUpdate:  mu: -0.113370216  nElectrons: 72.000000
	SubspaceRotationAdjust: set factor to 1.59
ElecMinimize: Iter:  68  F: -333.944989052650726  |grad|_K:  2.365e-07  alpha:  2.896e-01  linmin:  1.776e-05  t[s]:     37.24
	FillingsUpdate:  mu: -0.113267257  nElectrons: 72.000000
	SubspaceRotationAdjust: set factor to 1.35
ElecMinimize: Iter:  69  F: -333.944989094203549  |grad|_K:  2.325e-07  alpha:  1.210e-01  linmin: -8.050e-05  t[s]:     37.70
	FillingsUpdate:  mu: -0.113323728  nElectrons: 72.000000
	SubspaceRotationAdjust: set factor to 1.36
ElecMinimize: Iter:  70  F: -333.944989152307130  |grad|_K:  2.144e-07  alpha:  1.831e-01  linmin:  1.128e-04  t[s]:     38.17
	FillingsUpdate:  mu: -0.113340969  nElectrons: 72.000000

Dumping 'X.fillings' ... done
Dumping 'X.wfns' ... done
Dumping 'X.force' ... done
Dumping 'X.eigenvals' ... done
	SubspaceRotationAdjust: set factor to 1.6
ElecMinimize: Iter:  71  F: -333.944989201540693  |grad|_K:  2.478e-07  alpha:  2.012e-01  linmin:  4.554e-05  t[s]:     39.03
	FillingsUpdate:  mu: -0.113269209  nElectrons: 72.000000
	SubspaceRotationAdjust: set factor to 1.68
ElecMinimize: Iter:  72  F: -333.944989259596980  |grad|_K:  3.053e-07  alpha:  1.653e-01  linmin:  1.053e-05  t[s]:     39.50
	FillingsUpdate:  mu: -0.113325091  nElectrons: 72.000000
	SubspaceRotationAdjust: set factor to 1.88
ElecMinimize: Iter:  73  F: -333.944989341788812  |grad|_K:  3.482e-07  alpha:  1.506e-01  linmin:  2.033e-05  t[s]:     39.96
	FillingsUpdate:  mu: -0.113333594  nElectrons: 72.000000
	SubspaceRotationAdjust: set factor to 2.09
ElecMinimize: Iter:  74  F: -333.944989437352774  |grad|_K:  4.004e-07  alpha:  1.352e-01  linmin:  2.727e-05  t[s]:     40.43
	FillingsUpdate:  mu: -0.113270606  nElectrons: 72.000000
	SubspaceRotationAdjust: set factor to 2.45
ElecMinimize: Iter:  75  F: -333.944989516395367  |grad|_K:  4.101e-07  alpha:  8.277e-02  linmin: -6.131e-05  t[s]:     40.90
	FillingsUpdate:  mu: -0.113278277  nElectrons: 72.000000
	SubspaceRotationAdjust: set factor to 3.25
ElecMinimize: Iter:  76  F: -333.944989591549984  |grad|_K:  3.916e-07  alpha:  7.437e-02  linmin: -2.609e-07  t[s]:     41.36
	FillingsUpdate:  mu: -0.113325065  nElectrons: 72.000000
	SubspaceRotationAdjust: set factor to 4.16
ElecMinimize: Iter:  77  F: -333.944989645925034  |grad|_K:  3.782e-07  alpha:  6.071e-02  linmin: -5.204e-06  t[s]:     41.83
	FillingsUpdate:  mu: -0.113289982  nElectrons: 72.000000
	SubspaceRotationAdjust: set factor to 5.11
ElecMinimize: Iter:  78  F: -333.944989689993861  |grad|_K:  3.262e-07  alpha:  5.247e-02  linmin: -6.205e-06  t[s]:     42.30
	FillingsUpdate:  mu: -0.113287736  nElectrons: 72.000000

Dumping 'X.fillings' ... done
Dumping 'X.wfns' ... done
Dumping 'X.force' ... done
Dumping 'X.eigenvals' ... done
	SubspaceRotationAdjust: set factor to 5.54
ElecMinimize: Iter:  79  F: -333.944989725325854  |grad|_K:  2.894e-07  alpha:  5.612e-02  linmin: -8.754e-06  t[s]:     42.85
	FillingsUpdate:  mu: -0.113336860  nElectrons: 72.000000
	SubspaceRotationAdjust: set factor to 5.04
ElecMinimize: Iter:  80  F: -333.944989752519632  |grad|_K:  3.097e-07  alpha:  5.472e-02  linmin: -4.624e-06  t[s]:     43.32
	FillingsUpdate:  mu: -0.113268828  nElectrons: 72.000000
	SubspaceRotationAdjust: set factor to 4.26
ElecMinimize: Iter:  81  F: -333.944989774030262  |grad|_K:  3.140e-07  alpha:  3.837e-02  linmin: -2.277e-06  t[s]:     43.78
	FillingsUpdate:  mu: -0.113313022  nElectrons: 72.000000
	SubspaceRotationAdjust: set factor to 5.06
ElecMinimize: Iter:  82  F: -333.944989805812725  |grad|_K:  2.866e-07  alpha:  5.466e-02  linmin: -1.133e-05  t[s]:     44.25
	FillingsUpdate:  mu: -0.113326578  nElectrons: 72.000000
	SubspaceRotationAdjust: set factor to 6.13
ElecMinimize: Iter:  83  F: -333.944989844155600  |grad|_K:  3.142e-07  alpha:  7.897e-02  linmin: -1.620e-05  t[s]:     44.72
	FillingsUpdate:  mu: -0.113255558  nElectrons: 72.000000
	SubspaceRotationAdjust: set factor to 5.63
ElecMinimize: Iter:  84  F: -333.944989872533256  |grad|_K:  3.659e-07  alpha:  4.858e-02  linmin:  7.913e-07  t[s]:     45.18
	FillingsUpdate:  mu: -0.113321823  nElectrons: 72.000000
	SubspaceRotationAdjust: set factor to 5.25
ElecMinimize: Iter:  85  F: -333.944989895072297  |grad|_K:  2.811e-07  alpha:  2.861e-02  linmin: -1.062e-06  t[s]:     45.68
	FillingsUpdate:  mu: -0.113307023  nElectrons: 72.000000
	SubspaceRotationAdjust: set factor to 5.44
ElecMinimize: Iter:  86  F: -333.944989919679074  |grad|_K:  2.456e-07  alpha:  5.346e-02  linmin:  1.315e-05  t[s]:     46.15
	FillingsUpdate:  mu: -0.113273125  nElectrons: 72.000000

Dumping 'X.fillings' ... done
Dumping 'X.wfns' ... done
Dumping 'X.force' ... done
Dumping 'X.eigenvals' ... done
	SubspaceRotationAdjust: set factor to 5.28
ElecMinimize: Iter:  87  F: -333.944989939173695  |grad|_K:  2.778e-07  alpha:  5.611e-02  linmin:  6.076e-06  t[s]:     46.73
	FillingsUpdate:  mu: -0.113332925  nElectrons: 72.000000
	SubspaceRotationAdjust: set factor to 4.88
ElecMinimize: Iter:  88  F: -333.944989955520214  |grad|_K:  2.844e-07  alpha:  3.644e-02  linmin: -9.465e-07  t[s]:     47.20
	FillingsUpdate:  mu: -0.113307722  nElectrons: 72.000000
	SubspaceRotationAdjust: set factor to 6.22
ElecMinimize: Iter:  89  F: -333.944989980649211  |grad|_K:  2.755e-07  alpha:  5.263e-02  linmin: -1.044e-05  t[s]:     47.67
	FillingsUpdate:  mu: -0.113277897  nElectrons: 72.000000
	SubspaceRotationAdjust: set factor to 7.05
ElecMinimize: Iter:  90  F: -333.944990009280218  |grad|_K:  3.328e-07  alpha:  6.440e-02  linmin:  1.225e-05  t[s]:     48.13
	FillingsUpdate:  mu: -0.113348564  nElectrons: 72.000000
	SubspaceRotationAdjust: set factor to 6.65
ElecMinimize: Iter:  91  F: -333.944990028983398  |grad|_K:  3.437e-07  alpha:  3.067e-02  linmin:  2.657e-06  t[s]:     48.60
	FillingsUpdate:  mu: -0.113301552  nElectrons: 72.000000
	SubspaceRotationAdjust: set factor to 6.4
ElecMinimize: Iter:  92  F: -333.944990052541186  |grad|_K:  2.764e-07  alpha:  3.414e-02  linmin: -1.562e-06  t[s]:     49.07
	FillingsUpdate:  mu: -0.113311480  nElectrons: 72.000000
	SubspaceRotationAdjust: set factor to 6.29
ElecMinimize: Iter:  93  F: -333.944990076632223  |grad|_K:  2.583e-07  alpha:  5.335e-02  linmin: -1.063e-05  t[s]:     49.54
	FillingsUpdate:  mu: -0.113327678  nElectrons: 72.000000
	SubspaceRotationAdjust: set factor to 6.68
ElecMinimize: Iter:  94  F: -333.944990101065571  |grad|_K:  2.736e-07  alpha:  6.155e-02  linmin: -8.569e-06  t[s]:     50.00
	FillingsUpdate:  mu: -0.113272069  nElectrons: 72.000000

Dumping 'X.fillings' ... done
Dumping 'X.wfns' ... done
Dumping 'X.force' ... done
Dumping 'X.eigenvals' ... done
	SubspaceRotationAdjust: set factor to 6.29
ElecMinimize: Iter:  95  F: -333.944990123138552  |grad|_K:  3.411e-07  alpha:  4.980e-02  linmin: -2.855e-08  t[s]:     50.58
	FillingsUpdate:  mu: -0.113340180  nElectrons: 72.000000
	SubspaceRotationAdjust: set factor to 6.13
ElecMinimize: Iter:  96  F: -333.944990143260043  |grad|_K:  3.102e-07  alpha:  2.958e-02  linmin: -2.750e-07  t[s]:     51.05
	FillingsUpdate:  mu: -0.113313419  nElectrons: 72.000000
	SubspaceRotationAdjust: set factor to 7.22
ElecMinimize: Iter:  97  F: -333.944990171877407  |grad|_K:  2.825e-07  alpha:  5.089e-02  linmin:  5.553e-06  t[s]:     51.51
	FillingsUpdate:  mu: -0.113305014  nElectrons: 72.000000
	SubspaceRotationAdjust: set factor to 7.54
	SubspaceRotationAdjust: resetting CG because factor has changed by 7.5371
ElecMinimize: 	State modified externally: resetting search direction.
ElecMinimize: Iter:  98  F: -333.944990199086817  |grad|_K:  2.822e-07  alpha:  5.853e-02
	FillingsUpdate:  mu: -0.113464111  nElectrons: 72.000000
	SubspaceRotationAdjust: set factor to 4.12
ElecMinimize: Iter:  99  F: -333.944990243058839  |grad|_K:  7.730e-07  alpha:  9.388e-02  linmin: -1.995e-05  t[s]:     52.68
	FillingsUpdate:  mu: -0.113317094  nElectrons: 72.000000
	SubspaceRotationAdjust: set factor to 3.21
ElecMinimize: Iter: 100  F: -333.944990401380267  |grad|_K:  2.765e-07  alpha:  4.516e-02  linmin: -6.434e-07  t[s]:     53.15
ElecMinimize: 	Predicted alpha/alphaT>3.000000, increasing alphaT to 1.354852e-01.
ElecMinimize: 	Predicted alpha/alphaT>3.000000, increasing alphaT to 4.064555e-01.
	FillingsUpdate:  mu: -0.113161710  nElectrons: 72.000000
	SubspaceRotationAdjust: set factor to 2.52
ElecMinimize: Iter: 101  F: -333.944990858598544  |grad|_K:  5.608e-07  alpha:  1.024e+00  linmin:  6.541e-05  t[s]:     53.94
	FillingsUpdate:  mu: -0.113377902  nElectrons: 72.000000
	SubspaceRotationAdjust: set factor to 1.5
ElecMinimize: Iter: 102  F: -333.944990926528021  |grad|_K:  4.302e-07  alpha:  3.692e-02  linmin: -2.205e-05  t[s]:     54.40
ElecMinimize: 	Predicted alpha/alphaT>3.000000, increasing alphaT to 1.107607e-01.
ElecMinimize: 	Predicted alpha/alphaT>3.000000, increasing alphaT to 3.322822e-01.
	FillingsUpdate:  mu: -0.113617696  nElectrons: 72.000000

Dumping 'X.fillings' ... done
Dumping 'X.wfns' ... done
Dumping 'X.force' ... done
Dumping 'X.eigenvals' ... done
	SubspaceRotationAdjust: set factor to 1.1
ElecMinimize: Iter: 103  F: -333.944991352466388  |grad|_K:  6.343e-07  alpha:  3.919e-01  linmin:  5.879e-05  t[s]:     55.36
	FillingsUpdate:  mu: -0.113320572  nElectrons: 72.000000
	SubspaceRotationAdjust: set factor to 0.816
	SubspaceRotationAdjust: resetting CG because factor has changed by 0.108213
ElecMinimize: 	State modified externally: resetting search direction.
ElecMinimize: Iter: 104  F: -333.944991533034397  |grad|_K:  4.735e-07  alpha:  7.558e-02
ElecMinimize: 	Predicted alpha/alphaT>3.000000, increasing alphaT to 2.267468e-01.
	FillingsUpdate:  mu: -0.113538911  nElectrons: 72.000000
	SubspaceRotationAdjust: set factor to 0.644
ElecMinimize: Iter: 105  F: -333.944991845152799  |grad|_K:  4.056e-07  alpha:  2.375e-01  linmin: -4.694e-06  t[s]:     56.68
	FillingsUpdate:  mu: -0.113213549  nElectrons: 72.000000
	SubspaceRotationAdjust: set factor to 0.407
ElecMinimize: Iter: 106  F: -333.944992024897488  |grad|_K:  3.010e-07  alpha:  1.865e-01  linmin: -3.380e-07  t[s]:     57.15
	FillingsUpdate:  mu: -0.113179467  nElectrons: 72.000000
	SubspaceRotationAdjust: set factor to 0.504
ElecMinimize: Iter: 107  F: -333.944992284318118  |grad|_K:  2.675e-07  alpha:  4.887e-01  linmin:  1.198e-05  t[s]:     57.62
	FillingsUpdate:  mu: -0.113374736  nElectrons: 72.000000
	SubspaceRotationAdjust: set factor to 0.455
ElecMinimize: Iter: 108  F: -333.944992456342618  |grad|_K:  2.689e-07  alpha:  4.108e-01  linmin:  3.023e-06  t[s]:     58.08
	FillingsUpdate:  mu: -0.113177781  nElectrons: 72.000000
	SubspaceRotationAdjust: set factor to 0.365
ElecMinimize: Iter: 109  F: -333.944992675103379  |grad|_K:  3.387e-07  alpha:  5.163e-01  linmin:  1.441e-05  t[s]:     58.55
	FillingsUpdate:  mu: -0.113369776  nElectrons: 72.000000
	SubspaceRotationAdjust: set factor to 0.396
ElecMinimize: Iter: 110  F: -333.944993036349956  |grad|_K:  3.269e-07  alpha:  5.382e-01  linmin:  3.279e-05  t[s]:     59.02
	FillingsUpdate:  mu: -0.113656141  nElectrons: 72.000000

Dumping 'X.fillings' ... done
Dumping 'X.wfns' ... done
Dumping 'X.force' ... done
Dumping 'X.eigenvals' ... done
	SubspaceRotationAdjust: set factor to 0.401
ElecMinimize: Iter: 111  F: -333.944993474969692  |grad|_K:  4.746e-07  alpha:  7.058e-01  linmin:  1.083e-04  t[s]:     59.91
	FillingsUpdate:  mu: -0.113284681  nElectrons: 72.000000
	SubspaceRotationAdjust: set factor to 0.358
ElecMinimize: Iter: 112  F: -333.944994170628661  |grad|_K:  4.605e-07  alpha:  5.161e-01  linmin:  3.679e-05  t[s]:     60.38
	FillingsUpdate:  mu: -0.113287109  nElectrons: 72.000000
	SubspaceRotationAdjust: set factor to 0.433
ElecMinimize: Iter: 113  F: -333.944994580679804  |grad|_K:  3.340e-07  alpha:  3.244e-01  linmin: -6.328e-05  t[s]:     60.84
	FillingsUpdate:  mu: -0.113424697  nElectrons: 72.000000
	SubspaceRotationAdjust: set factor to 0.444
ElecMinimize: Iter: 114  F: -333.944994822942078  |grad|_K:  3.309e-07  alpha:  3.685e-01  linmin:  5.904e-05  t[s]:     61.31
	FillingsUpdate:  mu: -0.113262609  nElectrons: 72.000000
	SubspaceRotationAdjust: set factor to 0.51
ElecMinimize: Iter: 115  F: -333.944995090481598  |grad|_K:  3.218e-07  alpha:  4.213e-01  linmin:  1.189e-04  t[s]:     61.78
	FillingsUpdate:  mu: -0.113184944  nElectrons: 72.000000
	SubspaceRotationAdjust: set factor to 0.626
ElecMinimize: Iter: 116  F: -333.944995301498352  |grad|_K:  3.150e-07  alpha:  3.511e-01  linmin:  6.876e-05  t[s]:     62.24
	FillingsUpdate:  mu: -0.113328871  nElectrons: 72.000000
	SubspaceRotationAdjust: set factor to 0.684
ElecMinimize: Iter: 117  F: -333.944995486519190  |grad|_K:  3.155e-07  alpha:  3.200e-01  linmin:  9.102e-05  t[s]:     62.71
	FillingsUpdate:  mu: -0.113298880  nElectrons: 72.000000
	SubspaceRotationAdjust: set factor to 0.896
ElecMinimize: Iter: 118  F: -333.944995630384994  |grad|_K:  2.539e-07  alpha:  2.485e-01  linmin:  2.746e-05  t[s]:     63.18
	FillingsUpdate:  mu: -0.113253488  nElectrons: 72.000000

Dumping 'X.fillings' ... done
Dumping 'X.wfns' ... done
Dumping 'X.force' ... done
Dumping 'X.eigenvals' ... done
	SubspaceRotationAdjust: set factor to 0.987
ElecMinimize: Iter: 119  F: -333.944995733848543  |grad|_K:  2.715e-07  alpha:  2.748e-01  linmin: -2.404e-05  t[s]:     63.91
	FillingsUpdate:  mu: -0.113399426  nElectrons: 72.000000
	SubspaceRotationAdjust: set factor to 1.07
ElecMinimize: Iter: 120  F: -333.944995819818814  |grad|_K:  2.558e-07  alpha:  1.992e-01  linmin: -1.541e-05  t[s]:     64.38
	FillingsUpdate:  mu: -0.113353246  nElectrons: 72.000000
	SubspaceRotationAdjust: set factor to 1.34
ElecMinimize: Iter: 121  F: -333.944995921282725  |grad|_K:  2.501e-07  alpha:  2.626e-01  linmin: -1.849e-04  t[s]:     64.85
	FillingsUpdate:  mu: -0.113284683  nElectrons: 72.000000
	SubspaceRotationAdjust: set factor to 1.57
ElecMinimize: Iter: 122  F: -333.944996039109185  |grad|_K:  2.661e-07  alpha:  3.138e-01  linmin: -1.847e-04  t[s]:     65.31
	FillingsUpdate:  mu: -0.113403352  nElectrons: 72.000000
	SubspaceRotationAdjust: set factor to 1.16
ElecMinimize: Iter: 123  F: -333.944996128762227  |grad|_K:  3.614e-07  alpha:  2.128e-01  linmin: -7.594e-06  t[s]:     65.78
	FillingsUpdate:  mu: -0.113220105  nElectrons: 72.000000
	SubspaceRotationAdjust: set factor to 1.06
ElecMinimize: Iter: 124  F: -333.944996230784852  |grad|_K:  3.057e-07  alpha:  1.341e-01  linmin:  2.124e-06  t[s]:     66.25
	FillingsUpdate:  mu: -0.113282669  nElectrons: 72.000000
	SubspaceRotationAdjust: set factor to 1.35
ElecMinimize: Iter: 125  F: -333.944996408723114  |grad|_K:  2.706e-07  alpha:  3.280e-01  linmin:  1.488e-04  t[s]:     66.71
	FillingsUpdate:  mu: -0.113401403  nElectrons: 72.000000
	SubspaceRotationAdjust: set factor to 1.4
ElecMinimize: Iter: 126  F: -333.944996529499178  |grad|_K:  2.973e-07  alpha:  2.857e-01  linmin:  8.882e-05  t[s]:     67.18
	FillingsUpdate:  mu: -0.113264798  nElectrons: 72.000000

Dumping 'X.fillings' ... done
Dumping 'X.wfns' ... done
Dumping 'X.force' ... done
Dumping 'X.eigenvals' ... done
	SubspaceRotationAdjust: set factor to 1.23
ElecMinimize: Iter: 127  F: -333.944996596047758  |grad|_K:  2.897e-07  alpha:  1.280e-01  linmin: -7.032e-05  t[s]:     68.43
	FillingsUpdate:  mu: -0.113350338  nElectrons: 72.000000
	SubspaceRotationAdjust: set factor to 1.48
ElecMinimize: Iter: 128  F: -333.944996690195808  |grad|_K:  2.241e-07  alpha:  1.912e-01  linmin:  1.434e-04  t[s]:     68.90
	FillingsUpdate:  mu: -0.113358525  nElectrons: 72.000000
	SubspaceRotationAdjust: set factor to 1.84
ElecMinimize: Iter: 129  F: -333.944996771418403  |grad|_K:  2.259e-07  alpha:  2.820e-01  linmin:  1.080e-04  t[s]:     69.37
	FillingsUpdate:  mu: -0.113243127  nElectrons: 72.000000
	SubspaceRotationAdjust: set factor to 1.35
ElecMinimize: Iter: 130  F: -333.944996821358643  |grad|_K:  2.792e-07  alpha:  1.696e-01  linmin:  1.024e-05  t[s]:     69.84
	FillingsUpdate:  mu: -0.113347422  nElectrons: 72.000000
	SubspaceRotationAdjust: set factor to 1.3
ElecMinimize: Iter: 131  F: -333.944996865679684  |grad|_K:  1.993e-07  alpha:  9.751e-02  linmin:  2.428e-05  t[s]:     70.31
	FillingsUpdate:  mu: -0.113329094  nElectrons: 72.000000
	SubspaceRotationAdjust: set factor to 1.67
ElecMinimize: Iter: 132  F: -333.944996923945268  |grad|_K:  1.746e-07  alpha:  2.488e-01  linmin: -1.803e-04  t[s]:     70.78
	FillingsUpdate:  mu: -0.113276092  nElectrons: 72.000000
	SubspaceRotationAdjust: set factor to 1.46
ElecMinimize: Iter: 133  F: -333.944996969398971  |grad|_K:  1.978e-07  alpha:  2.500e-01  linmin: -5.187e-05  t[s]:     71.24
	FillingsUpdate:  mu: -0.113370218  nElectrons: 72.000000
	SubspaceRotationAdjust: set factor to 1.2
ElecMinimize: Iter: 134  F: -333.944996991266066  |grad|_K:  1.743e-07  alpha:  9.602e-02  linmin:  3.910e-05  t[s]:     71.71
	FillingsUpdate:  mu: -0.113331261  nElectrons: 72.000000

Dumping 'X.fillings' ... done
Dumping 'X.wfns' ... done
Dumping 'X.force' ... done
Dumping 'X.eigenvals' ... done
	SubspaceRotationAdjust: set factor to 1.55
ElecMinimize: Iter: 135  F: -333.944997029749402  |grad|_K:  1.436e-07  alpha:  2.171e-01  linmin: -5.283e-05  t[s]:     72.69
	FillingsUpdate:  mu: -0.113270406  nElectrons: 72.000000
	SubspaceRotationAdjust: set factor to 1.26
ElecMinimize: Iter: 136  F: -333.944997063664403  |grad|_K:  1.851e-07  alpha:  2.793e-01  linmin:  6.625e-05  t[s]:     73.15
	FillingsUpdate:  mu: -0.113353444  nElectrons: 72.000000
	SubspaceRotationAdjust: set factor to 1.09
ElecMinimize: Iter: 137  F: -333.944997082647490  |grad|_K:  1.514e-07  alpha:  9.437e-02  linmin: -5.807e-05  t[s]:     73.62
	FillingsUpdate:  mu: -0.113357302  nElectrons: 72.000000
	SubspaceRotationAdjust: set factor to 1.39
ElecMinimize: Iter: 138  F: -333.944997119266645  |grad|_K:  1.537e-07  alpha:  2.757e-01  linmin:  2.820e-04  t[s]:     74.09
	FillingsUpdate:  mu: -0.113275875  nElectrons: 72.000000
	SubspaceRotationAdjust: set factor to 1.17
ElecMinimize: Iter: 139  F: -333.944997140161092  |grad|_K:  1.797e-07  alpha:  1.540e-01  linmin: -4.635e-06  t[s]:     74.56
	FillingsUpdate:  mu: -0.113331675  nElectrons: 72.000000
	SubspaceRotationAdjust: set factor to 1.52
ElecMinimize: Iter: 140  F: -333.944997173276590  |grad|_K:  1.469e-07  alpha:  1.755e-01  linmin:  6.688e-05  t[s]:     75.05
	FillingsUpdate:  mu: -0.113379950  nElectrons: 72.000000
	SubspaceRotationAdjust: set factor to 1.46
ElecMinimize: Iter: 141  F: -333.944997211823363  |grad|_K:  1.945e-07  alpha:  3.088e-01  linmin:  8.040e-05  t[s]:     75.52
	FillingsUpdate:  mu: -0.113290583  nElectrons: 72.000000
	SubspaceRotationAdjust: set factor to 1.31
ElecMinimize: Iter: 142  F: -333.944997235470964  |grad|_K:  1.893e-07  alpha:  1.074e-01  linmin: -3.314e-05  t[s]:     75.98
	FillingsUpdate:  mu: -0.113317816  nElectrons: 72.000000

Dumping 'X.fillings' ... done
Dumping 'X.wfns' ... done
Dumping 'X.force' ... done
Dumping 'X.eigenvals' ... done
	SubspaceRotationAdjust: set factor to 1.78
ElecMinimize: Iter: 143  F: -333.944997279768074  |grad|_K:  1.681e-07  alpha:  2.090e-01  linmin: -7.871e-05  t[s]:     76.56
	FillingsUpdate:  mu: -0.113398593  nElectrons: 72.000000
	SubspaceRotationAdjust: set factor to 1.27
ElecMinimize: Iter: 144  F: -333.944997317813488  |grad|_K:  2.484e-07  alpha:  2.276e-01  linmin: -7.143e-05  t[s]:     77.03
	FillingsUpdate:  mu: -0.113293969  nElectrons: 72.000000
	SubspaceRotationAdjust: set factor to 1.18
ElecMinimize: Iter: 145  F: -333.944997350604638  |grad|_K:  1.777e-07  alpha:  9.067e-02  linmin:  4.827e-05  t[s]:     77.49
	FillingsUpdate:  mu: -0.113281748  nElectrons: 72.000000
	SubspaceRotationAdjust: set factor to 1.48
ElecMinimize: Iter: 146  F: -333.944997399951774  |grad|_K:  1.710e-07  alpha:  2.652e-01  linmin: -1.544e-04  t[s]:     77.96
	FillingsUpdate:  mu: -0.113378099  nElectrons: 72.000000
	SubspaceRotationAdjust: set factor to 1.18
ElecMinimize: Iter: 147  F: -333.944997426923635  |grad|_K:  2.005e-07  alpha:  1.560e-01  linmin: -3.965e-06  t[s]:     78.43
	FillingsUpdate:  mu: -0.113314143  nElectrons: 72.000000
	SubspaceRotationAdjust: set factor to 1.31
ElecMinimize: Iter: 148  F: -333.944997461435662  |grad|_K:  1.418e-07  alpha:  1.462e-01  linmin: -9.766e-06  t[s]:     78.90
	FillingsUpdate:  mu: -0.113304503  nElectrons: 72.000000
	SubspaceRotationAdjust: set factor to 1.57
ElecMinimize: Iter: 149  F: -333.944997497385430  |grad|_K:  1.455e-07  alpha:  3.058e-01  linmin:  7.069e-05  t[s]:     79.36
	FillingsUpdate:  mu: -0.113384781  nElectrons: 72.000000
	SubspaceRotationAdjust: set factor to 1.31
ElecMinimize: Iter: 150  F: -333.944997518517937  |grad|_K:  1.832e-07  alpha:  1.709e-01  linmin: -2.035e-05  t[s]:     79.83
	FillingsUpdate:  mu: -0.113310388  nElectrons: 72.000000

Dumping 'X.fillings' ... done
Dumping 'X.wfns' ... done
Dumping 'X.force' ... done
Dumping 'X.eigenvals' ... done
	SubspaceRotationAdjust: set factor to 1.24
ElecMinimize: Iter: 151  F: -333.944997545157094  |grad|_K:  1.396e-07  alpha:  1.345e-01  linmin:  5.964e-06  t[s]:     80.41
	FillingsUpdate:  mu: -0.113310116  nElectrons: 72.000000
	SubspaceRotationAdjust: set factor to 1.54
ElecMinimize: Iter: 152  F: -333.944997579505070  |grad|_K:  1.406e-07  alpha:  3.014e-01  linmin:  9.422e-05  t[s]:     80.88
	FillingsUpdate:  mu: -0.113363967  nElectrons: 72.000000
	SubspaceRotationAdjust: set factor to 1.38
ElecMinimize: Iter: 153  F: -333.944997610502242  |grad|_K:  1.794e-07  alpha:  2.704e-01  linmin:  4.427e-05  t[s]:     81.35
	FillingsUpdate:  mu: -0.113286381  nElectrons: 72.000000
	SubspaceRotationAdjust: set factor to 1.28
ElecMinimize: Iter: 154  F: -333.944997631970637  |grad|_K:  1.658e-07  alpha:  1.140e-01  linmin: -3.727e-05  t[s]:     81.82
	FillingsUpdate:  mu: -0.113323342  nElectrons: 72.000000
	SubspaceRotationAdjust: set factor to 1.76
ElecMinimize: Iter: 155  F: -333.944997665828680  |grad|_K:  1.450e-07  alpha:  2.132e-01  linmin:  1.619e-04  t[s]:     82.29
	FillingsUpdate:  mu: -0.113377126  nElectrons: 72.000000
	SubspaceRotationAdjust: set factor to 1.37
ElecMinimize: Iter: 156  F: -333.944997693945652  |grad|_K:  1.848e-07  alpha:  2.332e-01  linmin: -1.624e-05  t[s]:     82.75
	FillingsUpdate:  mu: -0.113296027  nElectrons: 72.000000
	SubspaceRotationAdjust: set factor to 1.26
ElecMinimize: Iter: 157  F: -333.944997712166412  |grad|_K:  1.517e-07  alpha:  9.080e-02  linmin:  3.331e-05  t[s]:     83.22
	FillingsUpdate:  mu: -0.113304204  nElectrons: 72.000000
	SubspaceRotationAdjust: set factor to 1.78
ElecMinimize: Iter: 158  F: -333.944997740951464  |grad|_K:  1.311e-07  alpha:  2.079e-01  linmin: -2.932e-04  t[s]:     83.69
	FillingsUpdate:  mu: -0.113373128  nElectrons: 72.000000

Dumping 'X.fillings' ... done
Dumping 'X.wfns' ... done
Dumping 'X.force' ... done
Dumping 'X.eigenvals' ... done
	SubspaceRotationAdjust: set factor to 1.27
ElecMinimize: Iter: 159  F: -333.944997760761851  |grad|_K:  1.800e-07  alpha:  1.891e-01  linmin: -3.242e-05  t[s]:     84.26
	FillingsUpdate:  mu: -0.113308009  nElectrons: 72.000000
	SubspaceRotationAdjust: set factor to 1.21
ElecMinimize: Iter: 160  F: -333.944997778370919  |grad|_K:  1.198e-07  alpha:  9.309e-02  linmin:  2.169e-05  t[s]:     84.72
ElecMinimize: 	Predicted alpha/alphaT>3.000000, increasing alphaT to 2.792605e-01.
	FillingsUpdate:  mu: -0.113305435  nElectrons: 72.000000
	SubspaceRotationAdjust: set factor to 1.56
ElecMinimize: Iter: 161  F: -333.944997802001353  |grad|_K:  1.222e-07  alpha:  2.817e-01  linmin:  2.108e-05  t[s]:     85.35
	FillingsUpdate:  mu: -0.113373392  nElectrons: 72.000000
	SubspaceRotationAdjust: set factor to 1.32
ElecMinimize: Iter: 162  F: -333.944997814775945  |grad|_K:  1.399e-07  alpha:  1.464e-01  linmin: -7.183e-06  t[s]:     85.82
	FillingsUpdate:  mu: -0.113326119  nElectrons: 72.000000
	SubspaceRotationAdjust: set factor to 1.49
ElecMinimize: Iter: 163  F: -333.944997831778153  |grad|_K:  1.034e-07  alpha:  1.483e-01  linmin:  4.701e-05  t[s]:     86.28
	FillingsUpdate:  mu: -0.113317021  nElectrons: 72.000000
	SubspaceRotationAdjust: set factor to 1.92
ElecMinimize: Iter: 164  F: -333.944997849205265  |grad|_K:  1.007e-07  alpha:  2.823e-01  linmin:  1.619e-04  t[s]:     86.75
	FillingsUpdate:  mu: -0.113359806  nElectrons: 72.000000
	SubspaceRotationAdjust: set factor to 1.45
ElecMinimize: Iter: 165  F: -333.944997860685646  |grad|_K:  1.299e-07  alpha:  1.971e-01  linmin: -2.962e-05  t[s]:     87.22
	FillingsUpdate:  mu: -0.113309323  nElectrons: 72.000000
	SubspaceRotationAdjust: set factor to 1.26
ElecMinimize: Iter: 166  F: -333.944997868919984  |grad|_K:  9.480e-08  alpha:  8.314e-02  linmin: -2.556e-05  t[s]:     87.68
	FillingsUpdate:  mu: -0.113322584  nElectrons: 72.000000

Dumping 'X.fillings' ... done
Dumping 'X.wfns' ... done
Dumping 'X.force' ... done
Dumping 'X.eigenvals' ... done
	SubspaceRotationAdjust: set factor to 1.65
ElecMinimize: Iter: 167  F: -333.944997880948165  |grad|_K:  8.415e-08  alpha:  2.307e-01  linmin:  4.027e-05  t[s]:     88.24
	FillingsUpdate:  mu: -0.113366331  nElectrons: 72.000000
	SubspaceRotationAdjust: set factor to 1.3
ElecMinimize: Iter: 168  F: -333.944997889973024  |grad|_K:  1.137e-07  alpha:  2.165e-01  linmin: -3.526e-05  t[s]:     88.70
	FillingsUpdate:  mu: -0.113318582  nElectrons: 72.000000
	SubspaceRotationAdjust: set factor to 1.16
ElecMinimize: Iter: 169  F: -333.944997897802807  |grad|_K:  8.899e-08  alpha:  1.034e-01  linmin:  4.895e-06  t[s]:     89.17
ElecMinimize: Converged (|Delta F|<1.000000e-08 for 2 iters).
Setting wave functions to eigenvectors of Hamiltonian

# Ionic positions in lattice coordinates:
ion Na   0.000000000000000   0.000000000000000   0.310080000000000 1
ion Na   0.500000000000000   0.500000000000000   0.364340000000000 1
ion Na   0.000000000000000   0.000000000000000   0.418610000000000 1
ion Na   0.500000000000000   0.500000000000000   0.472870000000000 1
ion Na   0.000000000000000   0.000000000000000   0.527130000000000 1
ion Na   0.500000000000000   0.500000000000000   0.581390000000000 1
ion Na   0.000000000000000   0.000000000000000   0.635660000000000 1
ion Na   0.500000000000000   0.500000000000000   0.689920000000000 1

# Forces in Lattice coordinates:
force Na   0.000000000000000   0.000000000000000   0.044147872254457 1
force Na   0.000000000000000   0.000000000000000   0.006779462808555 1
force Na   0.000000000000000   0.000000000000000   0.004048475210603 1
force Na   0.000000000000000  -0.000000000000000  -0.002465188631684 1
force Na   0.000000000000000  -0.000000000000000   0.002465188631798 1
force Na  -0.000000000000000   0.000000000000000  -0.004048475210603 1
force Na  -0.000000000000000  -0.000000000000000  -0.006779462809010 1
force Na   0.000000000000000   0.000000000000000  -0.044147872254456 1

# Energy components:
   Eewald =    -2861.8984859213346681
       EH =    -2603.1843658539137323
     Eloc =     5112.3080969993143299
      Enl =      -92.3758562103149217
   Epulay =       -0.0069052723650567
      Exc =      -47.8036917315502237
       KE =      159.0463071818055596
-------------------------------------
     Etot =     -333.9149008083591070
       TS =        0.0300970894437258
-------------------------------------
        F =     -333.9449978978028071

IonicMinimize: Iter:   0  F: -333.944997897802807  |grad|_K:  1.773e-04  t[s]:     89.27
IonicMinimize: None of the convergence criteria satisfied after 0 iterations.

#--- Lowdin population analysis ---
# oxidation-state Na +0.070 +0.046 +0.037 +0.048 +0.048 +0.037 +0.046 +0.070


Dumping 'X.fillings' ... done
Dumping 'X.wfns' ... done
Dumping 'X.ionpos' ... done
Dumping 'X.lattice' ... done
Dumping 'X.n' ... done
Dumping 'X.eigenvals' ... done
Dumping 'X.eigStats' ... 
	eMin: -2.307632 at state 0 ( [ +0.000000 +0.000000 +0.000000 ] spin 0 )
	HOMO: -0.114247 at state 14 ( [ +0.181818 +0.454545 +0.000000 ] spin 0 )
	mu  : -0.113319
	LUMO: -0.112900 at state 17 ( [ +0.272727 +0.454545 +0.000000 ] spin 0 )
	eMax: -0.019565 at state 11 ( [ +0.181818 +0.181818 +0.000000 ] spin 0 )
	HOMO-LUMO gap: +0.001347
	Optical gap  : +0.011658 at state 19 ( [ +0.363636 +0.454545 +0.000000 ] spin 0 )
Dumping 'X.dos' ... done.
End date and time: Tue Oct 10 16:37:01 2023  (Duration: 0-0:01:29.68)
Done!

*************** JDFTx 1.7.0  ***************

Start date and time: Tue Oct 10 16:37:05 2023
Executable jdftx with command-line: -m -i X.in -o X.out
Running on hosts (process indices):  ac0019 (0-20)
Divided in process groups (process indices):  0 (0)  1 (1)  2 (2)  3 (3)  4 (4)  5 (5)  6 (6)  7 (7)  8 (8)  9 (9)  10 (10)  11 (11)  12 (12)  13 (13)  14 (14)  15 (15)  16 (16)  17 (17)  18 (18)  19 (19)  20 (20)
Resource initialization completed at t[s]:      0.03
Run totals: 21 processes, 21 threads, 0 GPUs


Input parsed successfully to the following command list (including defaults):

basis kpoint-dependent
cache-projectors no
coords-type Lattice
core-overlap-check vector
coulomb-interaction Slab 001
coulomb-truncation-embed 0 0 0.5
davidson-band-ratio 1.1
density-of-states Etol 1.000000e-06 Esigma 0.000000e+00 \
		Complete \
	Total \
		Occupied \
	Total
dump End State IonicPositions Lattice ElecDensity CoreDensity EigStats DOS
dump Electronic State Forces
dump Ionic State IonicPositions Forces Lattice DOS
dump-interval Electronic 8
dump-interval Ionic 4
dump-name X.$var
elec-cutoff 20
elec-eigen-algo Davidson
elec-ex-corr gga-PBE
elec-smearing Fermi 0.0095
electronic-minimize  \
	dirUpdateScheme      FletcherReeves \
	linminMethod         DirUpdateRecommended \
	nIterations          2000 \
	history              15 \
	knormThreshold       0 \
	energyDiffThreshold  1e-08 \
	nEnergyDiff          2 \
	alphaTstart          1 \
	alphaTmin            1e-10 \
	updateTestStepSize   yes \
	alphaTreduceFactor   0.1 \
	alphaTincreaseFactor 3 \
	nAlphaAdjustMax      3 \
	wolfeEnergy          0.0001 \
	wolfeGradient        0.9 \
	fdTest               no
exchange-regularization WignerSeitzTruncated
fluid None
fluid-ex-corr (null) lda-PZ
fluid-gummel-loop 10 1.000000e-05
fluid-minimize  \
	dirUpdateScheme      PolakRibiere \
	linminMethod         DirUpdateRecommended \
	nIterations          100 \
	history              15 \
	knormThreshold       0 \
	energyDiffThreshold  0 \
	nEnergyDiff          2 \
	alphaTstart          1 \
	alphaTmin            1e-10 \
	updateTestStepSize   yes \
	alphaTreduceFactor   0.1 \
	alphaTincreaseFactor 3 \
	nAlphaAdjustMax      3 \
	wolfeEnergy          0.0001 \
	wolfeGradient        0.9 \
	fdTest               no
fluid-solvent H2O 55.338 ScalarEOS \
	epsBulk 78.4 \
	pMol 0.92466 \
	epsInf 1.77 \
	Pvap 1.06736e-10 \
	sigmaBulk 4.62e-05 \
	Rvdw 2.61727 \
	Res 1.42 \
	tauNuc 343133 \
	poleEl 15 7 1
forces-output-coords Positions
ion Na   0.000000000000000   0.000000000000000   0.310080000000000 1
ion Na   0.500000000000000   0.500000000000000   0.364340000000000 1
ion Na   0.000000000000000   0.000000000000000   0.418610000000000 1
ion Na   0.500000000000000   0.500000000000000   0.472870000000000 1
ion Na   0.000000000000000   0.000000000000000   0.527130000000000 1
ion Na   0.500000000000000   0.500000000000000   0.581390000000000 1
ion Na   0.000000000000000   0.000000000000000   0.635660000000000 1
ion Na   0.500000000000000   0.500000000000000   0.689920000000000 1
ion-species SG15/$ID_ONCV_PBE.upf
ion-width 0
ionic-minimize  \
	dirUpdateScheme      L-BFGS \
	linminMethod         DirUpdateRecommended \
	nIterations          0 \
	history              15 \
	knormThreshold       0.0001 \
	energyDiffThreshold  1e-06 \
	nEnergyDiff          2 \
	alphaTstart          1 \
	alphaTmin            1e-10 \
	updateTestStepSize   yes \
	alphaTreduceFactor   0.1 \
	alphaTincreaseFactor 3 \
	nAlphaAdjustMax      3 \
	wolfeEnergy          0.0001 \
	wolfeGradient        0.9 \
	fdTest               no
kpoint   0.000000000000   0.000000000000   0.000000000000  1.00000000000000
kpoint-folding 11 11 1 
latt-move-scale 1 1 1
latt-scale 1 1 1 
lattice  \
	   7.936714821600003   -0.000000000000000   -0.000000000000000  \
	   0.000000000000000    7.936714821600003   -0.000000000000000  \
	   0.000000000000000    0.000000000000000   73.131984080999999 
lattice-minimize  \
	dirUpdateScheme      L-BFGS \
	linminMethod         DirUpdateRecommended \
	nIterations          0 \
	history              15 \
	knormThreshold       0 \
	energyDiffThreshold  1e-06 \
	nEnergyDiff          2 \
	alphaTstart          1 \
	alphaTmin            1e-10 \
	updateTestStepSize   yes \
	alphaTreduceFactor   0.1 \
	alphaTincreaseFactor 3 \
	nAlphaAdjustMax      3 \
	wolfeEnergy          0.0001 \
	wolfeGradient        0.9 \
	fdTest               no
lcao-params -1 1e-06 0.0095
pcm-variant GLSSA13
spintype no-spin
subspace-rotation-factor 1 yes
symmetries automatic
symmetry-threshold 0.0001
wavefunction read X.wfns 40 10.000000



---------- Setting up symmetries ----------

Found 16 point-group symmetries of the bravais lattice
Found 16 space-group symmetries with basis
Applied RMS atom displacement 0 bohrs to make symmetries exact.

---------- Initializing the Grid ----------
R = 
[      7.93671            0            0  ]
[            0      7.93671            0  ]
[            0            0       73.132  ]
unit cell volume = 4606.69
G =
[   0.791661          0          0  ]
[         -0   0.791661          0  ]
[          0         -0  0.0859157  ]
Minimum fftbox size, Smin = [  32  32  296  ]
Chosen fftbox size, S = [  32  32  300  ]

---------- Exchange Correlation functional ----------
Initalized PBE GGA exchange.
Initalized PBE GGA correlation.

---------- Setting up pseudopotentials ----------
Width of ionic core gaussian charges (only for fluid interactions / plotting) set to 0

Reading pseudopotential file '/net/software/testing/software/jdftx/1.7.0-foss-2021b-mkl/share/jdftx/pseudopotentials/SG15/Na_ONCV_PBE.upf':
  'Na' pseudopotential, 'PBE' functional
  Generated using ONCVPSP code by D. R. Hamann
  Author: Martin Schlipf and Francois Gygi  Date: 150915.
  9 valence electrons, 3 orbitals, 4 projectors, 1992 radial grid points, with lMax = 1
  Transforming local potential to a uniform radial grid of dG=0.02 with 1109 points.
  Transforming nonlocal projectors to a uniform radial grid of dG=0.02 with 432 points.
    2S    l: 0   occupation:  2.0   eigenvalue: -2.085640
    2P    l: 1   occupation:  6.0   eigenvalue: -1.053708
    3S    l: 0   occupation:  1.0   eigenvalue: -0.100838
  Transforming atomic orbitals to a uniform radial grid of dG=0.02 with 432 points.
  Core radius for overlap checks: 2.01 bohrs.
  Reading pulay file /net/software/testing/software/jdftx/1.7.0-foss-2021b-mkl/share/jdftx/pseudopotentials/SG15/Na_ONCV_PBE.pulay ... using dE_dnG = -2.946487e-03 computed for Ecut = 20.

Initialized 1 species with 8 total atoms.

Folded 1 k-points by 11x11x1 to 121 k-points.

---------- Setting up k-points, bands, fillings ----------
Reduced to 21 k-points under symmetry. 
Computing the number of bands and number of electrons
Calculating initial fillings.
nElectrons:  72.000000   nBands: 40   nStates: 21

----- Setting up reduced wavefunction bases (one per k-point) -----
average nbasis = 19683.165 , ideal nbasis = 19680.127

----- Initializing Supercell corresponding to k-point mesh -----
Lattice vector linear combinations in supercell:
[  11   0   0  ]
[   0  11   0  ]
[   0   0   1  ]
Supercell lattice vectors:
[  87.3039  0  0  ]
[  0  87.3039  0  ]
[  0  0  73.132  ]

---------- Setting up coulomb interaction ----------
Setting up double-sized grid for truncated Coulomb potentials:
R = 
[      7.93671            0            0  ]
[            0      7.93671            0  ]
[            0            0      146.264  ]
unit cell volume = 9213.38
G =
[   0.791661          0          0  ]
[         -0   0.791661          0  ]
[          0         -0  0.0429578  ]
Chosen fftbox size, S = [  32  32  600  ]
Integer grid location selected as the embedding center:
   Grid: [  0  0  150  ]
   Lattice: [  0  0  0.5  ]
   Cartesian: [  0  0  36.566  ]
Constructing Wigner-Seitz cell: 6 faces (6 quadrilaterals, 0 hexagons)
Range-separation parameter for embedded mesh potentials due to point charges: 0.628283 bohrs.
Initialized slab truncation along lattice direction 001

---------- Setting up 2D ewald sum ----------
Optimum gaussian width for ewald sums = 4.734710 bohr.
Real space sums over 225 unit cells with max indices [  7  7  0  ]
Reciprocal space sums over 81 terms with max indices [  4  4  0  ]

---------- Allocating electronic variables ----------
Initializing wave functions:  reading from 'X.wfns'


---- Citations for features of the code used in this run ----

   Software package:
      R. Sundararaman, K. Letchworth-Weaver, K.A. Schwarz, D. Gunceler, Y. Ozhabes and T.A. Arias, 'JDFTx: software for joint density-functional theory', SoftwareX 6, 278 (2017)

   gga-PBE exchange-correlation functional:
      J.P. Perdew, K. Burke and M. Ernzerhof, Phys. Rev. Lett. 77, 3865 (1996)

   Pseudopotentials:
      M Schlipf and F Gygi, Comput. Phys. Commun. 196, 36 (2015)

   Truncated Coulomb potentials:
      R. Sundararaman and T.A. Arias, Phys. Rev. B 87, 165122 (2013)

   Total energy minimization with Auxiliary Hamiltonian:
      C. Freysoldt, S. Boeck, and J. Neugebauer, Phys. Rev. B 79, 241103(R) (2009)

   Linear-tetrahedron sampling for density of states:
      G. Lehmann and M. Taut, Phys. status solidi (b) 54, 469 (1972)

This list may not be complete. Please suggest additional citations or
report any other bugs at https://github.com/shankar1729/jdftx/issues

Initialization completed successfully at t[s]:      0.50


Setting the auxilliary hamiltonian equal to the subspace hamiltonian.

-------- Electronic minimization -----------
	FillingsUpdate:  mu: -0.096008176  nElectrons: 72.000000
ElecMinimize: Iter:   0  F: -333.921990342747165  |grad|_K:  1.222e-03  alpha:  1.000e+00
	FillingsUpdate:  mu: -0.186115211  nElectrons: 72.000000
	SubspaceRotationAdjust: set factor to 0.985
ElecMinimize: Iter:   1  F: -340.087858067347895  |grad|_K:  3.849e-04  alpha:  2.743e-01  linmin:  1.912e-02  t[s]:      4.53
	FillingsUpdate:  mu: +0.094937993  nElectrons: 72.000000
	SubspaceRotationAdjust: set factor to 0.625
ElecMinimize: Iter:   2  F: -340.662805724620625  |grad|_K:  2.177e-04  alpha:  2.575e-01  linmin: -7.664e-05  t[s]:      6.37
	FillingsUpdate:  mu: -0.113345541  nElectrons: 72.000000
	SubspaceRotationAdjust: set factor to 0.376
ElecMinimize: Iter:   3  F: -340.740191592222743  |grad|_K:  6.718e-05  alpha:  9.127e-02  linmin: -1.514e-03  t[s]:      8.21
ElecMinimize: 	Predicted alpha/alphaT>3.000000, increasing alphaT to 2.738240e-01.
	FillingsUpdate:  mu: -0.139226503  nElectrons: 72.000000
	SubspaceRotationAdjust: set factor to 0.381
ElecMinimize: Iter:   4  F: -340.761927065677526  |grad|_K:  3.901e-05  alpha:  2.757e-01  linmin:  2.042e-05  t[s]:     10.62
	FillingsUpdate:  mu: -0.090695025  nElectrons: 72.000000
	SubspaceRotationAdjust: set factor to 0.307
ElecMinimize: Iter:   5  F: -340.768172021788132  |grad|_K:  2.068e-05  alpha:  2.479e-01  linmin:  8.164e-05  t[s]:     12.49
	FillingsUpdate:  mu: -0.089910148  nElectrons: 72.000000
	SubspaceRotationAdjust: set factor to 0.415
ElecMinimize: Iter:   6  F: -340.770466577629520  |grad|_K:  1.535e-05  alpha:  3.263e-01  linmin:  3.879e-06  t[s]:     14.33
	FillingsUpdate:  mu: -0.108433547  nElectrons: 72.000000

Dumping 'X.fillings' ... done
Dumping 'X.wfns' ... done
Dumping 'X.force' ... done
Dumping 'X.eigenvals' ... done
	SubspaceRotationAdjust: set factor to 0.391
ElecMinimize: Iter:   7  F: -340.772075262331782  |grad|_K:  1.405e-05  alpha:  4.140e-01  linmin:  5.572e-05  t[s]:     16.43
	FillingsUpdate:  mu: -0.099654672  nElectrons: 72.000000
	SubspaceRotationAdjust: set factor to 0.408
ElecMinimize: Iter:   8  F: -340.773394604146119  |grad|_K:  1.113e-05  alpha:  4.082e-01  linmin:  2.015e-05  t[s]:     18.28
	FillingsUpdate:  mu: -0.096940749  nElectrons: 72.000000
	SubspaceRotationAdjust: set factor to 0.425
ElecMinimize: Iter:   9  F: -340.774108462712491  |grad|_K:  7.862e-06  alpha:  3.501e-01  linmin:  7.060e-06  t[s]:     20.12
	FillingsUpdate:  mu: -0.104059032  nElectrons: 72.000000
	SubspaceRotationAdjust: set factor to 0.347
ElecMinimize: Iter:  10  F: -340.774431707771726  |grad|_K:  5.613e-06  alpha:  3.164e-01  linmin:  1.538e-05  t[s]:     21.98
	FillingsUpdate:  mu: -0.100107169  nElectrons: 72.000000
	SubspaceRotationAdjust: set factor to 0.327
ElecMinimize: Iter:  11  F: -340.774596950052569  |grad|_K:  3.913e-06  alpha:  3.179e-01  linmin:  3.344e-06  t[s]:     23.85
	FillingsUpdate:  mu: -0.098921269  nElectrons: 72.000000
	SubspaceRotationAdjust: set factor to 0.348
ElecMinimize: Iter:  12  F: -340.774703471784221  |grad|_K:  3.593e-06  alpha:  4.208e-01  linmin:  1.366e-06  t[s]:     25.74
	FillingsUpdate:  mu: -0.102282665  nElectrons: 72.000000
	SubspaceRotationAdjust: set factor to 0.325
ElecMinimize: Iter:  13  F: -340.774798559512135  |grad|_K:  3.396e-06  alpha:  4.454e-01  linmin:  3.010e-05  t[s]:     27.64
	FillingsUpdate:  mu: -0.100717028  nElectrons: 72.000000
	SubspaceRotationAdjust: set factor to 0.344
ElecMinimize: Iter:  14  F: -340.774884347275929  |grad|_K:  3.074e-06  alpha:  4.498e-01  linmin: -8.488e-07  t[s]:     29.51
	FillingsUpdate:  mu: -0.099234619  nElectrons: 72.000000

Dumping 'X.fillings' ... done
Dumping 'X.wfns' ... done
Dumping 'X.force' ... done
Dumping 'X.eigenvals' ... done
	SubspaceRotationAdjust: set factor to 0.352
ElecMinimize: Iter:  15  F: -340.774950387207582  |grad|_K:  2.718e-06  alpha:  4.224e-01  linmin: -2.823e-06  t[s]:     41.35
	FillingsUpdate:  mu: -0.101885313  nElectrons: 72.000000
	SubspaceRotationAdjust: set factor to 0.319
ElecMinimize: Iter:  16  F: -340.774998539611090  |grad|_K:  2.202e-06  alpha:  3.939e-01  linmin: -4.101e-06  t[s]:     43.22
	FillingsUpdate:  mu: -0.101658173  nElectrons: 72.000000
	SubspaceRotationAdjust: set factor to 0.339
ElecMinimize: Iter:  17  F: -340.775031384647264  |grad|_K:  1.836e-06  alpha:  4.094e-01  linmin: -4.444e-07  t[s]:     45.09
	FillingsUpdate:  mu: -0.100508272  nElectrons: 72.000000
	SubspaceRotationAdjust: set factor to 0.318
ElecMinimize: Iter:  18  F: -340.775053556167393  |grad|_K:  1.499e-06  alpha:  3.976e-01  linmin: -4.216e-07  t[s]:     46.96
	FillingsUpdate:  mu: -0.101603268  nElectrons: 72.000000
	SubspaceRotationAdjust: set factor to 0.302
ElecMinimize: Iter:  19  F: -340.775068487275746  |grad|_K:  1.249e-06  alpha:  4.019e-01  linmin: -9.727e-07  t[s]:     48.83
	FillingsUpdate:  mu: -0.101822520  nElectrons: 72.000000
	SubspaceRotationAdjust: set factor to 0.316
ElecMinimize: Iter:  20  F: -340.775080131690913  |grad|_K:  1.143e-06  alpha:  4.512e-01  linmin: -3.747e-08  t[s]:     50.69
	FillingsUpdate:  mu: -0.100904158  nElectrons: 72.000000
	SubspaceRotationAdjust: set factor to 0.3
ElecMinimize: Iter:  21  F: -340.775089501167542  |grad|_K:  1.027e-06  alpha:  4.337e-01  linmin:  8.592e-07  t[s]:     52.56
	FillingsUpdate:  mu: -0.101138573  nElectrons: 72.000000
	SubspaceRotationAdjust: set factor to 0.314
ElecMinimize: Iter:  22  F: -340.775097772434606  |grad|_K:  9.763e-07  alpha:  4.743e-01  linmin:  5.787e-06  t[s]:     54.42
	FillingsUpdate:  mu: -0.101611382  nElectrons: 72.000000

Dumping 'X.fillings' ... done
Dumping 'X.wfns' ... done
Dumping 'X.force' ... done
Dumping 'X.eigenvals' ... done
	SubspaceRotationAdjust: set factor to 0.315
ElecMinimize: Iter:  23  F: -340.775105135040008  |grad|_K:  9.145e-07  alpha:  4.670e-01  linmin:  2.996e-06  t[s]:     56.46
	FillingsUpdate:  mu: -0.101066914  nElectrons: 72.000000
	SubspaceRotationAdjust: set factor to 0.31
ElecMinimize: Iter:  24  F: -340.775111102144706  |grad|_K:  7.922e-07  alpha:  4.314e-01  linmin: -4.176e-07  t[s]:     58.32
	FillingsUpdate:  mu: -0.100999658  nElectrons: 72.000000
	SubspaceRotationAdjust: set factor to 0.321
ElecMinimize: Iter:  25  F: -340.775115695875684  |grad|_K:  6.921e-07  alpha:  4.425e-01  linmin:  2.717e-07  t[s]:     60.19
	FillingsUpdate:  mu: -0.101369013  nElectrons: 72.000000
	SubspaceRotationAdjust: set factor to 0.309
ElecMinimize: Iter:  26  F: -340.775118964311730  |grad|_K:  5.854e-07  alpha:  4.125e-01  linmin:  8.211e-07  t[s]:     62.05
	FillingsUpdate:  mu: -0.101165724  nElectrons: 72.000000
	SubspaceRotationAdjust: set factor to 0.309
ElecMinimize: Iter:  27  F: -340.775121487483091  |grad|_K:  5.271e-07  alpha:  4.451e-01  linmin: -3.919e-07  t[s]:     63.92
	FillingsUpdate:  mu: -0.101018947  nElectrons: 72.000000
	SubspaceRotationAdjust: set factor to 0.312
ElecMinimize: Iter:  28  F: -340.775123644391329  |grad|_K:  5.075e-07  alpha:  4.694e-01  linmin: -7.967e-07  t[s]:     65.77
	FillingsUpdate:  mu: -0.101234244  nElectrons: 72.000000
	SubspaceRotationAdjust: set factor to 0.309
ElecMinimize: Iter:  29  F: -340.775125668758562  |grad|_K:  4.882e-07  alpha:  4.752e-01  linmin: -9.806e-07  t[s]:     67.64
	FillingsUpdate:  mu: -0.101133869  nElectrons: 72.000000
	SubspaceRotationAdjust: set factor to 0.315
ElecMinimize: Iter:  30  F: -340.775127655861581  |grad|_K:  4.866e-07  alpha:  5.039e-01  linmin:  5.112e-08  t[s]:     69.50
	FillingsUpdate:  mu: -0.100991947  nElectrons: 72.000000

Dumping 'X.fillings' ... done
Dumping 'X.wfns' ... done
Dumping 'X.force' ... done
Dumping 'X.eigenvals' ... done
	SubspaceRotationAdjust: set factor to 0.319
ElecMinimize: Iter:  31  F: -340.775129488557866  |grad|_K:  4.650e-07  alpha:  4.679e-01  linmin:  1.518e-07  t[s]:     71.63
	FillingsUpdate:  mu: -0.101187248  nElectrons: 72.000000
	SubspaceRotationAdjust: set factor to 0.318
ElecMinimize: Iter:  32  F: -340.775131230226066  |grad|_K:  4.485e-07  alpha:  4.870e-01  linmin:  9.899e-06  t[s]:     73.50
	FillingsUpdate:  mu: -0.101145168  nElectrons: 72.000000
	SubspaceRotationAdjust: set factor to 0.322
ElecMinimize: Iter:  33  F: -340.775132817363499  |grad|_K:  4.342e-07  alpha:  4.772e-01  linmin:  1.119e-05  t[s]:     75.35
	FillingsUpdate:  mu: -0.101026037  nElectrons: 72.000000
	SubspaceRotationAdjust: set factor to 0.321
ElecMinimize: Iter:  34  F: -340.775134318972448  |grad|_K:  4.316e-07  alpha:  4.821e-01  linmin:  2.141e-05  t[s]:     77.22
	FillingsUpdate:  mu: -0.101229591  nElectrons: 72.000000
	SubspaceRotationAdjust: set factor to 0.316
ElecMinimize: Iter:  35  F: -340.775135885256645  |grad|_K:  4.478e-07  alpha:  5.098e-01  linmin:  3.914e-05  t[s]:     79.08
	FillingsUpdate:  mu: -0.101205665  nElectrons: 72.000000
	SubspaceRotationAdjust: set factor to 0.322
ElecMinimize: Iter:  36  F: -340.775137523145247  |grad|_K:  4.625e-07  alpha:  4.958e-01  linmin:  4.724e-05  t[s]:     80.94
	FillingsUpdate:  mu: -0.100995215  nElectrons: 72.000000
	SubspaceRotationAdjust: set factor to 0.326
ElecMinimize: Iter:  37  F: -340.775139212538306  |grad|_K:  4.728e-07  alpha:  4.801e-01  linmin:  6.321e-05  t[s]:     82.81
	FillingsUpdate:  mu: -0.101132244  nElectrons: 72.000000
	SubspaceRotationAdjust: set factor to 0.341
ElecMinimize: Iter:  38  F: -340.775140920883757  |grad|_K:  4.815e-07  alpha:  4.651e-01  linmin:  7.928e-05  t[s]:     84.68
	FillingsUpdate:  mu: -0.101215266  nElectrons: 72.000000

Dumping 'X.fillings' ... done
Dumping 'X.wfns' ... done
Dumping 'X.force' ... done
Dumping 'X.eigenvals' ... done
	SubspaceRotationAdjust: set factor to 0.372
ElecMinimize: Iter:  39  F: -340.775142655271907  |grad|_K:  5.005e-07  alpha:  4.555e-01  linmin:  6.148e-05  t[s]:     86.82
	FillingsUpdate:  mu: -0.100952026  nElectrons: 72.000000
	SubspaceRotationAdjust: set factor to 0.4
ElecMinimize: Iter:  40  F: -340.775144587023249  |grad|_K:  5.397e-07  alpha:  4.684e-01  linmin:  1.172e-05  t[s]:     88.68
	FillingsUpdate:  mu: -0.101034004  nElectrons: 72.000000
	SubspaceRotationAdjust: set factor to 0.446
ElecMinimize: Iter:  41  F: -340.775146902420545  |grad|_K:  5.953e-07  alpha:  4.809e-01  linmin: -4.044e-05  t[s]:     90.55
	FillingsUpdate:  mu: -0.101346249  nElectrons: 72.000000
	SubspaceRotationAdjust: set factor to 0.475
ElecMinimize: Iter:  42  F: -340.775149915482871  |grad|_K:  6.864e-07  alpha:  5.111e-01  linmin: -6.797e-05  t[s]:     92.42
	FillingsUpdate:  mu: -0.100887630  nElectrons: 72.000000
	SubspaceRotationAdjust: set factor to 0.469
ElecMinimize: Iter:  43  F: -340.775153667871677  |grad|_K:  7.604e-07  alpha:  4.773e-01  linmin: -3.437e-05  t[s]:     94.28
	FillingsUpdate:  mu: -0.101316448  nElectrons: 72.000000
	SubspaceRotationAdjust: set factor to 0.472
ElecMinimize: Iter:  44  F: -340.775158219152161  |grad|_K:  7.904e-07  alpha:  4.730e-01  linmin:  6.602e-06  t[s]:     96.15
	FillingsUpdate:  mu: -0.101271974  nElectrons: 72.000000
	SubspaceRotationAdjust: set factor to 0.506
ElecMinimize: Iter:  45  F: -340.775162859436307  |grad|_K:  7.738e-07  alpha:  4.492e-01  linmin:  1.491e-05  t[s]:     98.02
	FillingsUpdate:  mu: -0.101024573  nElectrons: 72.000000
	SubspaceRotationAdjust: set factor to 0.548
ElecMinimize: Iter:  46  F: -340.775166916790340  |grad|_K:  7.335e-07  alpha:  4.103e-01  linmin:  2.104e-06  t[s]:     99.88
	FillingsUpdate:  mu: -0.101494657  nElectrons: 72.000000

Dumping 'X.fillings' ... done
Dumping 'X.wfns' ... done
Dumping 'X.force' ... done
Dumping 'X.eigenvals' ... done
	SubspaceRotationAdjust: set factor to 0.577
ElecMinimize: Iter:  47  F: -340.775170344148421  |grad|_K:  7.153e-07  alpha:  3.851e-01  linmin:  2.231e-06  t[s]:    102.54
	FillingsUpdate:  mu: -0.101033821  nElectrons: 72.000000
	SubspaceRotationAdjust: set factor to 0.592
ElecMinimize: Iter:  48  F: -340.775173306833892  |grad|_K:  6.467e-07  alpha:  3.502e-01  linmin: -7.406e-06  t[s]:    104.40
	FillingsUpdate:  mu: -0.101395485  nElectrons: 72.000000
	SubspaceRotationAdjust: set factor to 0.609
ElecMinimize: Iter:  49  F: -340.775175664984317  |grad|_K:  5.496e-07  alpha:  3.405e-01  linmin: -1.751e-05  t[s]:    106.27
	FillingsUpdate:  mu: -0.101174910  nElectrons: 72.000000
	SubspaceRotationAdjust: set factor to 0.626
ElecMinimize: Iter:  50  F: -340.775177379659965  |grad|_K:  4.506e-07  alpha:  3.422e-01  linmin: -2.602e-05  t[s]:    108.13
	FillingsUpdate:  mu: -0.101343202  nElectrons: 72.000000
	SubspaceRotationAdjust: set factor to 0.63
ElecMinimize: Iter:  51  F: -340.775178569336958  |grad|_K:  3.773e-07  alpha:  3.526e-01  linmin: -2.634e-05  t[s]:    110.00
	FillingsUpdate:  mu: -0.101137664  nElectrons: 72.000000
	SubspaceRotationAdjust: set factor to 0.609
ElecMinimize: Iter:  52  F: -340.775179396186616  |grad|_K:  3.327e-07  alpha:  3.499e-01  linmin: -2.123e-05  t[s]:    111.86
	FillingsUpdate:  mu: -0.101413882  nElectrons: 72.000000
	SubspaceRotationAdjust: set factor to 0.544
ElecMinimize: Iter:  53  F: -340.775180001021909  |grad|_K:  3.142e-07  alpha:  3.296e-01  linmin: -2.222e-06  t[s]:    113.73
	FillingsUpdate:  mu: -0.101137809  nElectrons: 72.000000
	SubspaceRotationAdjust: set factor to 0.474
ElecMinimize: Iter:  54  F: -340.775180493400910  |grad|_K:  2.809e-07  alpha:  3.013e-01  linmin:  9.121e-07  t[s]:    115.60
	FillingsUpdate:  mu: -0.101288129  nElectrons: 72.000000

Dumping 'X.fillings' ... done
Dumping 'X.wfns' ... done
Dumping 'X.force' ... done
Dumping 'X.eigenvals' ... done
	SubspaceRotationAdjust: set factor to 0.486
ElecMinimize: Iter:  55  F: -340.775180969220003  |grad|_K:  2.563e-07  alpha:  3.648e-01  linmin:  4.601e-06  t[s]:    117.66
	FillingsUpdate:  mu: -0.101336421  nElectrons: 72.000000
	SubspaceRotationAdjust: set factor to 0.524
[...]
	FillingsUpdate:  mu: -0.096299050  nElectrons: 72.000000
	SubspaceRotationAdjust: set factor to 0.441
ElecMinimize: Iter:  17  F: -340.781140255289358  |grad|_K:  4.586e-08  alpha:  4.279e-01  linmin:  5.503e-07  t[s]:   1833.25
	FillingsUpdate:  mu: -0.096201255  nElectrons: 72.000000
	SubspaceRotationAdjust: set factor to 0.36
ElecMinimize: Iter:  18  F: -340.781140306278303  |grad|_K:  3.568e-08  alpha:  3.716e-01  linmin: -1.381e-06  t[s]:   1842.60
	FillingsUpdate:  mu: -0.096252545  nElectrons: 72.000000
	SubspaceRotationAdjust: set factor to 0.284
ElecMinimize: Iter:  19  F: -340.781140335113207  |grad|_K:  2.512e-08  alpha:  3.475e-01  linmin:  9.473e-06  t[s]:   1851.95
	FillingsUpdate:  mu: -0.096212452  nElectrons: 72.000000
	SubspaceRotationAdjust: set factor to 0.277
ElecMinimize: Iter:  20  F: -340.781140352044474  |grad|_K:  1.899e-08  alpha:  4.150e-01  linmin:  7.265e-05  t[s]:   1861.34
	FillingsUpdate:  mu: -0.096199186  nElectrons: 72.000000
	SubspaceRotationAdjust: set factor to 0.316
ElecMinimize: Iter:  21  F: -340.781140362574718  |grad|_K:  1.628e-08  alpha:  4.520e-01  linmin: -1.161e-04  t[s]:   1870.69
	FillingsUpdate:  mu: -0.096218081  nElectrons: 72.000000
	SubspaceRotationAdjust: set factor to 0.343
ElecMinimize: Iter:  22  F: -340.781140371264712  |grad|_K:  1.518e-08  alpha:  4.958e-01  linmin:  6.459e-05  t[s]:   1880.04
	FillingsUpdate:  mu: -0.096205592  nElectrons: 72.000000

Dumping 'X.fillings' ... done
Dumping 'X.wfns' ... done
Dumping 'X.ionpos' ... done
Dumping 'X.force' ... done
Dumping 'X.eigenvals' ... done
	SubspaceRotationAdjust: set factor to 0.385
ElecMinimize: Iter:  23  F: -340.781140378717566  |grad|_K:  1.369e-08  alpha:  5.005e-01  linmin:  1.654e-04  t[s]:   1890.38
ElecMinimize: Converged (|Delta F|<1.000000e-08 for 2 iters).
Setting wave functions to eigenvectors of Hamiltonian
Converging empty states (this may take a while): |deigs|: 6.112e-08
IonicMinimize: 	Wolfe criterion not satisfied: alpha: 1  (E-E0)/|gdotd0|: 0.563808  gdotd/gdotd0: -0.310045 (taking cubic step)

-------- Electronic minimization -----------
	FillingsUpdate:  mu: -0.094163642  nElectrons: 72.000000
ElecMinimize: Iter:   0  F: -340.781010451727070  |grad|_K:  2.582e-06  alpha:  1.000e+00
	FillingsUpdate:  mu: -0.097759848  nElectrons: 72.000000
	SubspaceRotationAdjust: set factor to 0.224
ElecMinimize: Iter:   1  F: -340.781126659943709  |grad|_K:  8.081e-07  alpha:  2.660e-01  linmin: -4.652e-04  t[s]:   1917.77
	FillingsUpdate:  mu: -0.095673244  nElectrons: 72.000000
	SubspaceRotationAdjust: set factor to 0.115
ElecMinimize: Iter:   2  F: -340.781135322447085  |grad|_K:  3.329e-07  alpha:  2.026e-01  linmin: -1.047e-05  t[s]:   1927.13
	FillingsUpdate:  mu: -0.095804055  nElectrons: 72.000000
	SubspaceRotationAdjust: set factor to 0.154
ElecMinimize: Iter:   3  F: -340.781138301231692  |grad|_K:  2.005e-07  alpha:  4.112e-01  linmin:  3.056e-05  t[s]:   1936.49
	FillingsUpdate:  mu: -0.096251087  nElectrons: 72.000000
	SubspaceRotationAdjust: set factor to 0.144
ElecMinimize: Iter:   4  F: -340.781139645389203  |grad|_K:  1.396e-07  alpha:  5.114e-01  linmin:  2.020e-05  t[s]:   1945.90
	FillingsUpdate:  mu: -0.096264432  nElectrons: 72.000000
	SubspaceRotationAdjust: set factor to 0.158
ElecMinimize: Iter:   5  F: -340.781140493703276  |grad|_K:  1.234e-07  alpha:  6.657e-01  linmin: -2.864e-05  t[s]:   1955.28
	FillingsUpdate:  mu: -0.096115238  nElectrons: 72.000000
	SubspaceRotationAdjust: set factor to 0.162
ElecMinimize: Iter:   6  F: -340.781141083676175  |grad|_K:  1.003e-07  alpha:  5.921e-01  linmin:  4.653e-06  t[s]:   1964.64
	FillingsUpdate:  mu: -0.096012814  nElectrons: 72.000000

Dumping 'X.fillings' ... done
Dumping 'X.wfns' ... done
Dumping 'X.ionpos' ... done
Dumping 'X.force' ... done
Dumping 'X.eigenvals' ... done
	SubspaceRotationAdjust: set factor to 0.164
ElecMinimize: Iter:   7  F: -340.781141446051379  |grad|_K:  7.614e-08  alpha:  5.509e-01  linmin:  3.159e-06  t[s]:   1975.08
	FillingsUpdate:  mu: -0.096093828  nElectrons: 72.000000
	SubspaceRotationAdjust: set factor to 0.164
ElecMinimize: Iter:   8  F: -340.781141646793856  |grad|_K:  5.376e-08  alpha:  5.297e-01  linmin:  3.653e-05  t[s]:   1984.51
	FillingsUpdate:  mu: -0.096111296  nElectrons: 72.000000
	SubspaceRotationAdjust: set factor to 0.169
ElecMinimize: Iter:   9  F: -340.781141745706293  |grad|_K:  4.308e-08  alpha:  5.241e-01  linmin: -6.521e-05  t[s]:   1993.86
	FillingsUpdate:  mu: -0.096064795  nElectrons: 72.000000
	SubspaceRotationAdjust: set factor to 0.169
ElecMinimize: Iter:  10  F: -340.781141806144149  |grad|_K:  3.559e-08  alpha:  4.974e-01  linmin:  7.522e-05  t[s]:   2003.24
	FillingsUpdate:  mu: -0.096053630  nElectrons: 72.000000
	SubspaceRotationAdjust: set factor to 0.171
ElecMinimize: Iter:  11  F: -340.781141848543996  |grad|_K:  2.983e-08  alpha:  5.124e-01  linmin: -7.114e-05  t[s]:   2012.64
	FillingsUpdate:  mu: -0.096075563  nElectrons: 72.000000
	SubspaceRotationAdjust: set factor to 0.169
ElecMinimize: Iter:  12  F: -340.781141877568871  |grad|_K:  2.380e-08  alpha:  4.985e-01  linmin:  5.947e-06  t[s]:   2022.01
	FillingsUpdate:  mu: -0.096080551  nElectrons: 72.000000
	SubspaceRotationAdjust: set factor to 0.171
ElecMinimize: Iter:  13  F: -340.781141896036559  |grad|_K:  1.954e-08  alpha:  5.009e-01  linmin:  7.169e-05  t[s]:   2031.38
	FillingsUpdate:  mu: -0.096078119  nElectrons: 72.000000
	SubspaceRotationAdjust: set factor to 0.172
ElecMinimize: Iter:  14  F: -340.781141908454913  |grad|_K:  1.658e-08  alpha:  4.988e-01  linmin:  5.345e-05  t[s]:   2040.79
	FillingsUpdate:  mu: -0.096079303  nElectrons: 72.000000

Dumping 'X.fillings' ... done
Dumping 'X.wfns' ... done
Dumping 'X.ionpos' ... done
Dumping 'X.force' ... done
Dumping 'X.eigenvals' ... done
	SubspaceRotationAdjust: set factor to 0.172
ElecMinimize: Iter:  15  F: -340.781141917611535  |grad|_K:  1.388e-08  alpha:  5.072e-01  linmin: -2.481e-04  t[s]:   2050.93
	FillingsUpdate:  mu: -0.096084272  nElectrons: 72.000000
	SubspaceRotationAdjust: set factor to 0.173
ElecMinimize: Iter:  16  F: -340.781141924342705  |grad|_K:  1.205e-08  alpha:  5.307e-01  linmin:  2.506e-05  t[s]:   2060.30
ElecMinimize: Converged (|Delta F|<1.000000e-08 for 2 iters).
Setting wave functions to eigenvectors of Hamiltonian
Converging empty states (this may take a while): |deigs|: 5.321e-08

# Ionic positions in lattice coordinates:
ion Na   0.000000000000000  -0.000000000000000   0.312004486585258 1
ion Na   0.500000000000000   0.500000000000000   0.366144938629879 1
ion Na  -0.000000000000000   0.000000000000000   0.418891486381399 1
ion Na   0.500000000000000   0.500000000000000   0.472764668847116 1
ion Na  -0.000000000000000   0.000000000000000   0.527235331152884 1
ion Na   0.500000000000000   0.500000000000000   0.581108513618601 1
ion Na  -0.000000000000000   0.000000000000000   0.633855061370121 1
ion Na   0.500000000000000   0.500000000000000   0.687995513414742 1

# Forces in Lattice coordinates:
force Na   0.000000000000000  -0.000000000000000  -0.000190986121166 1
force Na   0.000000000000000   0.000000000000000   0.000650418527279 1
force Na   0.000000000000000   0.000000000000000   0.001082135501830 1
force Na   0.000000000000000   0.000000000000000   0.000360116075056 1
force Na   0.000000000000000   0.000000000000000  -0.000360116075056 1
force Na   0.000000000000000  -0.000000000000000  -0.001082135501830 1
force Na   0.000000000000000   0.000000000000000  -0.000650418527734 1
force Na   0.000000000000000   0.000000000000000   0.000190986121620 1

# Energy components:
   Eewald =    -2834.6980655067150110
       EH =    -2561.6478616935328319
     Eloc =     5035.5800727886389723
      Enl =     -103.4466954542986912
   Epulay =        0.0000000191663811
      Exc =      -50.0899110335321467
       KE =      173.5216328876186367
-------------------------------------
     Etot =     -340.7808279926542241
       TS =        0.0003139316885017
-------------------------------------
        F =     -340.7811419243427054

IonicMinimize: Iter:   8  F: -340.781141924342705  |grad|_K:  5.237e-06  alpha:  1.716e-01  linmin: -7.274e-01  t[s]:   2071.53
IonicMinimize: Converged (|grad|_K<1.000000e-05).

#--- Lowdin population analysis ---
# oxidation-state Na +0.059 +0.042 +0.028 +0.046 +0.046 +0.028 +0.042 +0.059


Dumping 'X.fillings' ... done
Dumping 'X.wfns' ... done
Dumping 'X.ionpos' ... done
Dumping 'X.lattice' ... done
Dumping 'X.n' ... done
Dumping 'X.eigenvals' ... done
Dumping 'X.eigStats' ... 
	eMin: -2.058929 at state 0 ( [ +0.000000 +0.000000 +0.000000 ] spin 0 )
	HOMO: -0.096086 at state 19 ( [ +0.363636 +0.454545 +0.000000 ] spin 0 )
	mu  : -0.096084
	LUMO: -0.094804 at state 17 ( [ +0.272727 +0.454545 +0.000000 ] spin 0 )
	eMax: -0.009595 at state 11 ( [ +0.181818 +0.181818 +0.000000 ] spin 0 )
	HOMO-LUMO gap: +0.001282
	Optical gap  : +0.002376 at state 17 ( [ +0.272727 +0.454545 +0.000000 ] spin 0 )
Dumping 'X.dos' ... done.
End date and time: Mon Oct 23 12:59:01 2023  (Duration: 0-0:34:32.80)
Done!

*************** JDFTx 1.7.0  ***************

Start date and time: Mon Oct 30 12:31:55 2023
Executable jdftx with command-line: -m -i X.in -o X.out
Running on hosts (process indices):  ac0109 (0-20)
Divided in process groups (process indices):  0 (0)  1 (1)  2 (2)  3 (3)  4 (4)  5 (5)  6 (6)  7 (7)  8 (8)  9 (9)  10 (10)  11 (11)  12 (12)  13 (13)  14 (14)  15 (15)  16 (16)  17 (17)  18 (18)  19 (19)  20 (20)
Resource initialization completed at t[s]:      0.00
Run totals: 21 processes, 21 threads, 0 GPUs


Input parsed successfully to the following command list (including defaults):

basis kpoint-dependent
cache-projectors no
converge-empty-states yes
coords-type Lattice
core-overlap-check vector
coulomb-interaction Slab 001
coulomb-truncation-embed 0 0 0.5
davidson-band-ratio 1.1
density-of-states Etol 1.000000e-06 Esigma 0.000000e+00 \
		Complete \
	Total \
		Occupied \
	Total
dump End State IonicPositions Lattice ElecDensity CoreDensity Dtot EigStats DOS
dump Electronic State Forces
dump Ionic State IonicPositions Forces Lattice DOS
dump-interval Electronic 8
dump-interval Ionic 4
dump-name X.$var
dump-only 
elec-cutoff 50
elec-eigen-algo Davidson
elec-ex-corr gga-PBE
elec-smearing Fermi 0.00095
electronic-minimize  \
	dirUpdateScheme      FletcherReeves \
	linminMethod         DirUpdateRecommended \
	nIterations          2000 \
	history              15 \
	knormThreshold       0 \
	energyDiffThreshold  1e-08 \
	nEnergyDiff          2 \
	alphaTstart          1 \
	alphaTmin            1e-10 \
	updateTestStepSize   yes \
	alphaTreduceFactor   0.1 \
	alphaTincreaseFactor 3 \
	nAlphaAdjustMax      3 \
	wolfeEnergy          0.0001 \
	wolfeGradient        0.9 \
	fdTest               no
exchange-regularization WignerSeitzTruncated
fluid None
fluid-ex-corr (null) lda-PZ
fluid-gummel-loop 10 1.000000e-05
fluid-minimize  \
	dirUpdateScheme      PolakRibiere \
	linminMethod         DirUpdateRecommended \
	nIterations          100 \
	history              15 \
	knormThreshold       0 \
	energyDiffThreshold  0 \
	nEnergyDiff          2 \
	alphaTstart          1 \
	alphaTmin            1e-10 \
	updateTestStepSize   yes \
	alphaTreduceFactor   0.1 \
	alphaTincreaseFactor 3 \
	nAlphaAdjustMax      3 \
	wolfeEnergy          0.0001 \
	wolfeGradient        0.9 \
	fdTest               no
fluid-solvent H2O 55.338 ScalarEOS \
	epsBulk 78.4 \
	pMol 0.92466 \
	epsInf 1.77 \
	Pvap 1.06736e-10 \
	sigmaBulk 4.62e-05 \
	Rvdw 2.61727 \
	Res 1.42 \
	tauNuc 343133 \
	poleEl 15 7 1
forces-output-coords Positions
initial-state X.$var
ion Na   0.000000000000000  -0.000000000000000   0.312004486585258 1
ion Na   0.500000000000000   0.500000000000000   0.366144938629879 1
ion Na  -0.000000000000000   0.000000000000000   0.418891486381399 1
ion Na   0.500000000000000   0.500000000000000   0.472764668847116 1
ion Na  -0.000000000000000   0.000000000000000   0.527235331152884 1
ion Na   0.500000000000000   0.500000000000000   0.581108513618601 1
ion Na  -0.000000000000000   0.000000000000000   0.633855061370121 1
ion Na   0.500000000000000   0.500000000000000   0.687995513414742 1
ion-species SG15/$ID_ONCV_PBE.upf
ion-width 0
ionic-minimize  \
	dirUpdateScheme      L-BFGS \
	linminMethod         DirUpdateRecommended \
	nIterations          200 \
	history              15 \
	knormThreshold       1e-05 \
	energyDiffThreshold  1e-07 \
	nEnergyDiff          2 \
	alphaTstart          1 \
	alphaTmin            1e-10 \
	updateTestStepSize   yes \
	alphaTreduceFactor   0.1 \
	alphaTincreaseFactor 3 \
	nAlphaAdjustMax      3 \
	wolfeEnergy          0.0001 \
	wolfeGradient        0.9 \
	fdTest               no
kpoint   0.000000000000   0.000000000000   0.000000000000  1.00000000000000
kpoint-folding 11 11 1 
latt-move-scale 1 1 1
latt-scale 1 1 1 
lattice  \
	   7.936714821600003   -0.000000000000000   -0.000000000000000  \
	   0.000000000000000    7.936714821600003   -0.000000000000000  \
	   0.000000000000000    0.000000000000000   73.131984080999999 
lattice-minimize  \
	dirUpdateScheme      L-BFGS \
	linminMethod         DirUpdateRecommended \
	nIterations          0 \
	history              15 \
	knormThreshold       0 \
	energyDiffThreshold  1e-06 \
	nEnergyDiff          2 \
	alphaTstart          1 \
	alphaTmin            1e-10 \
	updateTestStepSize   yes \
	alphaTreduceFactor   0.1 \
	alphaTincreaseFactor 3 \
	nAlphaAdjustMax      3 \
	wolfeEnergy          0.0001 \
	wolfeGradient        0.9 \
	fdTest               no
lcao-params -1 1e-06 0.00095
pcm-variant GLSSA13
spintype no-spin
subspace-rotation-factor 1 yes
symmetries automatic
symmetry-threshold 0.0001



---------- Setting up symmetries ----------

Found 16 point-group symmetries of the bravais lattice
Found 16 space-group symmetries with basis
Applied RMS atom displacement 0 bohrs to make symmetries exact.

---------- Initializing the Grid ----------
R = 
[      7.93671            0            0  ]
[            0      7.93671            0  ]
[            0            0       73.132  ]
unit cell volume = 4606.69
G =
[   0.791661          0          0  ]
[         -0   0.791661          0  ]
[          0         -0  0.0859157  ]
Minimum fftbox size, Smin = [  52  52  468  ]
Chosen fftbox size, S = [  54  54  480  ]

---------- Exchange Correlation functional ----------
Initalized PBE GGA exchange.
Initalized PBE GGA correlation.

---------- Setting up pseudopotentials ----------
Width of ionic core gaussian charges (only for fluid interactions / plotting) set to 0

Reading pseudopotential file '/net/software/testing/software/jdftx/1.7.0-foss-2021b-mkl/share/jdftx/pseudopotentials/SG15/Na_ONCV_PBE.upf':
  'Na' pseudopotential, 'PBE' functional
  Generated using ONCVPSP code by D. R. Hamann
  Author: Martin Schlipf and Francois Gygi  Date: 150915.
  9 valence electrons, 3 orbitals, 4 projectors, 1992 radial grid points, with lMax = 1
  Transforming local potential to a uniform radial grid of dG=0.02 with 1835 points.
  Transforming nonlocal projectors to a uniform radial grid of dG=0.02 with 680 points.
    2S    l: 0   occupation:  2.0   eigenvalue: -2.085640
    2P    l: 1   occupation:  6.0   eigenvalue: -1.053708
    3S    l: 0   occupation:  1.0   eigenvalue: -0.100838
  Transforming atomic orbitals to a uniform radial grid of dG=0.02 with 680 points.
  Core radius for overlap checks: 2.01 bohrs.
  Reading pulay file /net/software/testing/software/jdftx/1.7.0-foss-2021b-mkl/share/jdftx/pseudopotentials/SG15/Na_ONCV_PBE.pulay ... using dE_dnG = -4.628430e-06 computed for Ecut = 50.

Initialized 1 species with 8 total atoms.

Folded 1 k-points by 11x11x1 to 121 k-points.

---------- Setting up k-points, bands, fillings ----------
Reduced to 21 k-points under symmetry. 
Computing the number of bands and number of electrons
Reading initial fillings from file X.fillings.
nElectrons:  72.000000   nBands: 40   nStates: 21

----- Setting up reduced wavefunction bases (one per k-point) -----
average nbasis = 77794.917 , ideal nbasis = 77792.533

----- Initializing Supercell corresponding to k-point mesh -----
Lattice vector linear combinations in supercell:
[  11   0   0  ]
[   0  11   0  ]
[   0   0   1  ]
Supercell lattice vectors:
[  87.3039  0  0  ]
[  0  87.3039  0  ]
[  0  0  73.132  ]

---------- Setting up coulomb interaction ----------
Setting up double-sized grid for truncated Coulomb potentials:
R = 
[      7.93671            0            0  ]
[            0      7.93671            0  ]
[            0            0      146.264  ]
unit cell volume = 9213.38
G =
[   0.791661          0          0  ]
[         -0   0.791661          0  ]
[          0         -0  0.0429578  ]
Chosen fftbox size, S = [  54  54  960  ]
Integer grid location selected as the embedding center:
   Grid: [  0  0  240  ]
   Lattice: [  0  0  0.5  ]
   Cartesian: [  0  0  36.566  ]
Constructing Wigner-Seitz cell: 6 faces (6 quadrilaterals, 0 hexagons)
Range-separation parameter for embedded mesh potentials due to point charges: 0.492428 bohrs.
Initialized slab truncation along lattice direction 001

---------- Setting up 2D ewald sum ----------
Optimum gaussian width for ewald sums = 4.734710 bohr.
Real space sums over 225 unit cells with max indices [  7  7  0  ]
Reciprocal space sums over 81 terms with max indices [  4  4  0  ]

---------- Allocating electronic variables ----------
Initializing wave functions:  reading from 'X.wfns'


---- Citations for features of the code used in this run ----

   Software package:
      R. Sundararaman, K. Letchworth-Weaver, K.A. Schwarz, D. Gunceler, Y. Ozhabes and T.A. Arias, 'JDFTx: software for joint density-functional theory', SoftwareX 6, 278 (2017)

   gga-PBE exchange-correlation functional:
      J.P. Perdew, K. Burke and M. Ernzerhof, Phys. Rev. Lett. 77, 3865 (1996)

   Pseudopotentials:
      M Schlipf and F Gygi, Comput. Phys. Commun. 196, 36 (2015)

   Truncated Coulomb potentials:
      R. Sundararaman and T.A. Arias, Phys. Rev. B 87, 165122 (2013)

   Total energy minimization with Auxiliary Hamiltonian:
      C. Freysoldt, S. Boeck, and J. Neugebauer, Phys. Rev. B 79, 241103(R) (2009)

   Linear-tetrahedron sampling for density of states:
      G. Lehmann and M. Taut, Phys. status solidi (b) 54, 469 (1972)

   Smooth electrostatic potentials by atom-potential subtraction:
      R. Sundararaman and Y. Ping, J. Chem. Phys. 146, 104109 (2017)

This list may not be complete. Please suggest additional citations or
report any other bugs at https://github.com/shankar1729/jdftx/issues

Initialization completed successfully at t[s]:      2.01


----------- Energy evaluation at fixed state -------------
# Energy components:
   Eewald =    -2834.6980655067195585
       EH =    -2561.6538178359405720
     Eloc =     5035.5860281127334019
      Enl =     -103.4466914570229648
   Epulay =        0.0000000191663811
      Exc =      -50.0899072626635800
       KE =      173.5216257772365793
-------------------------------------
     Etot =     -340.7808281532107344
       TS =        0.0003137821143727
-------------------------------------
        F =     -340.7811419353250812


Dumping 'X.fillings' ... done
Dumping 'X.wfns' ... done
Dumping 'X.ionpos' ... done
Dumping 'X.lattice' ... done
Dumping 'X.n' ... done
Dumping 'X.d_tot' ... done
Dumping 'X.eigenvals' ... done
Dumping 'X.eigStats' ... 
	eMin: -2.058945 at state 0 ( [ +0.000000 +0.000000 +0.000000 ] spin 0 )
	HOMO: -0.096159 at state 19 ( [ +0.363636 +0.454545 +0.000000 ] spin 0 )
	mu  : -0.096166
	LUMO: -0.094878 at state 17 ( [ +0.272727 +0.454545 +0.000000 ] spin 0 )
	eMax: -0.009648 at state 11 ( [ +0.181818 +0.181818 +0.000000 ] spin 0 )
	HOMO-LUMO gap: +0.001281
	Optical gap  : +0.002412 at state 17 ( [ +0.272727 +0.454545 +0.000000 ] spin 0 )
Dumping 'X.dos' ... done.
End date and time: Mon Oct 30 12:32:04 2023  (Duration: 0-0:00:08.42)
Done!
